 Entering Gaussian System, Link 0=g09
 Input=azido-azetikoa-b3lyp-acct.com
 Output=azido-azetikoa-b3lyp-acct.log
 Initial command:
 /usr/local//g09l/l1.exe /scratch/pobmabej/GAUSS_25615.arina/Gau-25797.inp -scrdir=/scratch/pobmabej/GAUSS_25615.arina/
 Entering Link 1 = /usr/local//g09l/l1.exe PID=     25798.
  
 Copyright (c) 1988,1990,1992,1993,1995,1998,2003,2009,2010,
            Gaussian, Inc.  All Rights Reserved.
  
 This is part of the Gaussian(R) 09 program.  It is based on
 the Gaussian(R) 03 system (copyright 2003, Gaussian, Inc.),
 the Gaussian(R) 98 system (copyright 1998, Gaussian, Inc.),
 the Gaussian(R) 94 system (copyright 1995, Gaussian, Inc.),
 the Gaussian 92(TM) system (copyright 1992, Gaussian, Inc.),
 the Gaussian 90(TM) system (copyright 1990, Gaussian, Inc.),
 the Gaussian 88(TM) system (copyright 1988, Gaussian, Inc.),
 the Gaussian 86(TM) system (copyright 1986, Carnegie Mellon
 University), and the Gaussian 82(TM) system (copyright 1983,
 Carnegie Mellon University). Gaussian is a federally registered
 trademark of Gaussian, Inc.
  
 This software contains proprietary and confidential information,
 including trade secrets, belonging to Gaussian, Inc.
  
 This software is provided under written license and may be
 used, copied, transmitted, or stored only in accord with that
 written license.
  
 The following legend is applicable only to US Government
 contracts under FAR:
  
                    RESTRICTED RIGHTS LEGEND
  
 Use, reproduction and disclosure by the US Government is
 subject to restrictions as set forth in subparagraphs (a)
 and (c) of the Commercial Computer Software - Restricted
 Rights clause in FAR 52.227-19.
  
 Gaussian, Inc.
 340 Quinnipiac St., Bldg. 40, Wallingford CT 06492
  
  
 ---------------------------------------------------------------
 Warning -- This program may not be used in any manner that
 competes with the business of Gaussian, Inc. or will provide
 assistance to any competitor of Gaussian, Inc.  The licensee
 of this program is prohibited from giving any competitor of
 Gaussian, Inc. access to this program.  By using this program,
 the user acknowledges that Gaussian, Inc. is engaged in the
 business of creating and licensing software in the field of
 computational chemistry and represents and warrants to the
 licensee that it is not a competitor of Gaussian, Inc. and that
 it will not use this program in any manner prohibited above.
 ---------------------------------------------------------------
  

 Cite this work as:
 Gaussian 09, Revision B.01,
 M. J. Frisch, G. W. Trucks, H. B. Schlegel, G. E. Scuseria, 
 M. A. Robb, J. R. Cheeseman, G. Scalmani, V. Barone, B. Mennucci, 
 G. A. Petersson, H. Nakatsuji, M. Caricato, X. Li, H. P. Hratchian, 
 A. F. Izmaylov, J. Bloino, G. Zheng, J. L. Sonnenberg, M. Hada, 
 M. Ehara, K. Toyota, R. Fukuda, J. Hasegawa, M. Ishida, T. Nakajima, 
 Y. Honda, O. Kitao, H. Nakai, T. Vreven, J. A. Montgomery, Jr., 
 J. E. Peralta, F. Ogliaro, M. Bearpark, J. J. Heyd, E. Brothers, 
 K. N. Kudin, V. N. Staroverov, T. Keith, R. Kobayashi, J. Normand, 
 K. Raghavachari, A. Rendell, J. C. Burant, S. S. Iyengar, J. Tomasi, 
 M. Cossi, N. Rega, J. M. Millam, M. Klene, J. E. Knox, J. B. Cross, 
 V. Bakken, C. Adamo, J. Jaramillo, R. Gomperts, R. E. Stratmann, 
 O. Yazyev, A. J. Austin, R. Cammi, C. Pomelli, J. W. Ochterski, 
 R. L. Martin, K. Morokuma, V. G. Zakrzewski, G. A. Voth, 
 P. Salvador, J. J. Dannenberg, S. Dapprich, A. D. Daniels, 
 O. Farkas, J. B. Foresman, J. V. Ortiz, J. Cioslowski, 
 and D. J. Fox, Gaussian, Inc., Wallingford CT, 2010.
 
 ******************************************
 Gaussian 09:  IA64L-G09RevB.01 12-Aug-2010
                18-Jan-2012 
 ******************************************
 %mem=7520mb
 %nprocshared=8
 Will use up to    8 processors via shared memory.
 %Chk=azido-azetikoa-b3lyp-acct
 ----------------------------------------------------------------------
 #b3lyp TD=(singlets,nstates=3)/aug-cc-pVTZ SCRF=(IEFPCM,solvent=cycloh
 exane) SCF(maxCyc=200,conver=8) 5D 7F gfinput pop=full guess=read geom
 =checkpoint
 ----------------------------------------------------------------------
 1/29=2,38=1/1;
 2/12=2,40=1/2;
 3/5=16,6=1,7=10,8=11,11=2,14=-4,16=1,24=10,25=1,30=1,70=2201,72=17,74=-5,116=-2/1,2,8,3;
 4/5=1/1;
 5/5=2,6=8,7=200,38=6,53=17/2;
 8/6=1,10=1,108=3/1;
 9/41=3,42=1,48=1/14;
 6/7=3/1;
 99/5=1,9=1/99;
 -------------------------------------------------
 Zn12S12 K testing with B3LYP/SBKJ(d) and 6-311+G*
 -------------------------------------------------
 Redundant internal coordinates taken from checkpoint file:
 azido-azetikoa-b3lyp-acct.chk
 Charge =  0 Multiplicity = 1
 C,0,1.2532633373,-0.5917392687,0.
 O,0,0.201289349,-0.0016928969,0.
 C,0,2.6159959648,0.0355027435,0.
 H,0,3.1729937252,-0.2916663505,-0.8778514995
 H,0,2.5232756508,1.116388766,0.
 H,0,3.1729937252,-0.2916663505,0.8778514995
 O,0,1.3243058086,-1.9444762712,0.
 H,0,0.4161234387,-2.2833853713,0.
 Recover connectivity data from disk.
                          Input orientation:                          
 ---------------------------------------------------------------------
 Center     Atomic      Atomic             Coordinates (Angstroms)
 Number     Number       Type             X           Y           Z
 ---------------------------------------------------------------------
      1          6           0        1.253263   -0.591739    0.000000
      2          8           0        0.201289   -0.001693    0.000000
      3          6           0        2.615996    0.035503    0.000000
      4          1           0        3.172994   -0.291666   -0.877851
      5          1           0        2.523276    1.116389    0.000000
      6          1           0        3.172994   -0.291666    0.877851
      7          8           0        1.324306   -1.944476    0.000000
      8          1           0        0.416123   -2.283385    0.000000
 ---------------------------------------------------------------------
                    Distance matrix (angstroms):
                    1          2          3          4          5
     1  C    0.000000
     2  O    1.206153   0.000000
     3  C    1.500158   2.414993   0.000000
     4  H    2.132143   3.112191   1.089913   0.000000
     5  H    2.128528   2.577155   1.084856   1.781958   0.000000
     6  H    2.132143   3.112191   1.089913   1.755703   1.781958
     7  O    1.354601   2.244008   2.364060   2.630599   3.287312
     8  H    1.887451   2.291784   3.196354   3.512535   3.999819
                    6          7          8
     6  H    0.000000
     7  O    2.630599   0.000000
     8  H    3.512535   0.969358   0.000000
 Stoichiometry    C2H4O2
 Framework group  CS[SG(C2H2O2),X(H2)]
 Deg. of freedom    12
 Full point group                 CS      NOp   2
 Largest Abelian subgroup         CS      NOp   2
 Largest concise Abelian subgroup CS      NOp   2
                         Standard orientation:                         
 ---------------------------------------------------------------------
 Center     Atomic      Atomic             Coordinates (Angstroms)
 Number     Number       Type             X           Y           Z
 ---------------------------------------------------------------------
      1          6           0        0.000000    0.153523    0.000000
      2          8           0       -0.184021    1.345555    0.000000
      3          6           0       -1.064980   -0.903023    0.000000
      4          1           0       -0.953728   -1.539347    0.877851
      5          1           0       -2.044848   -0.437435    0.000000
      6          1           0       -0.953728   -1.539347   -0.877851
      7          8           0        1.242078   -0.387019    0.000000
      8          1           0        1.877731    0.344829    0.000000
 ---------------------------------------------------------------------
 Rotational constants (GHZ):     11.3584567      9.4783091      5.3362623
 Standard basis: Aug-CC-pVTZ (5D, 7F)
 AO basis set in the form of general basis input (Overlap normalization):
      1 0
 S   7 1.00       0.000000000000
      0.8236000000D+04  0.5419783203D-03
      0.1235000000D+04  0.4192873817D-02
      0.2808000000D+03  0.2152216205D-01
      0.7927000000D+02  0.8353432195D-01
      0.2559000000D+02  0.2395828457D+00
      0.8997000000D+01  0.4428528419D+00
      0.3319000000D+01  0.3517995618D+00
 S   6 1.00       0.000000000000
      0.2808000000D+03 -0.5949224937D-04
      0.7927000000D+02 -0.1148158310D-02
      0.2559000000D+02 -0.1001913745D-01
      0.8997000000D+01 -0.6121949230D-01
      0.3319000000D+01 -0.1732698541D+00
      0.3643000000D+00  0.1072915192D+01
 S   1 1.00       0.000000000000
      0.9059000000D+00  0.1000000000D+01
 S   1 1.00       0.000000000000
      0.1285000000D+00  0.1000000000D+01
 S   1 1.00       0.000000000000
      0.4402000000D-01  0.1000000000D+01
 P   3 1.00       0.000000000000
      0.1871000000D+02  0.3942638716D-01
      0.4133000000D+01  0.2440889849D+00
      0.1200000000D+01  0.8154920089D+00
 P   1 1.00       0.000000000000
      0.3827000000D+00  0.1000000000D+01
 P   1 1.00       0.000000000000
      0.1209000000D+00  0.1000000000D+01
 P   1 1.00       0.000000000000
      0.3569000000D-01  0.1000000000D+01
 D   1 1.00       0.000000000000
      0.1097000000D+01  0.1000000000D+01
 D   1 1.00       0.000000000000
      0.3180000000D+00  0.1000000000D+01
 D   1 1.00       0.000000000000
      0.1000000000D+00  0.1000000000D+01
 F   1 1.00       0.000000000000
      0.7610000000D+00  0.1000000000D+01
 F   1 1.00       0.000000000000
      0.2680000000D+00  0.1000000000D+01
 ****
      2 0
 S   7 1.00       0.000000000000
      0.1533000000D+05  0.5198089434D-03
      0.2299000000D+04  0.4020256215D-02
      0.5224000000D+03  0.2071282673D-01
      0.1473000000D+03  0.8101055358D-01
      0.4755000000D+02  0.2359629851D+00
      0.1676000000D+02  0.4426534455D+00
      0.6207000000D+01  0.3570644227D+00
 S   6 1.00       0.000000000000
      0.5224000000D+03 -0.4421150084D-04
      0.1473000000D+03 -0.1225910413D-02
      0.4755000000D+02 -0.1055177248D-01
      0.1676000000D+02 -0.6744526326D-01
      0.6207000000D+01 -0.1711986073D+00
      0.6882000000D+00  0.1073298561D+01
 S   1 1.00       0.000000000000
      0.1752000000D+01  0.1000000000D+01
 S   1 1.00       0.000000000000
      0.2384000000D+00  0.1000000000D+01
 S   1 1.00       0.000000000000
      0.7376000000D-01  0.1000000000D+01
 P   3 1.00       0.000000000000
      0.3446000000D+02  0.4116348957D-01
      0.7749000000D+01  0.2577628359D+00
      0.2280000000D+01  0.8024192744D+00
 P   1 1.00       0.000000000000
      0.7156000000D+00  0.1000000000D+01
 P   1 1.00       0.000000000000
      0.2140000000D+00  0.1000000000D+01
 P   1 1.00       0.000000000000
      0.5974000000D-01  0.1000000000D+01
 D   1 1.00       0.000000000000
      0.2314000000D+01  0.1000000000D+01
 D   1 1.00       0.000000000000
      0.6450000000D+00  0.1000000000D+01
 D   1 1.00       0.000000000000
      0.2140000000D+00  0.1000000000D+01
 F   1 1.00       0.000000000000
      0.1428000000D+01  0.1000000000D+01
 F   1 1.00       0.000000000000
      0.5000000000D+00  0.1000000000D+01
 ****
      3 0
 S   7 1.00       0.000000000000
      0.8236000000D+04  0.5419783203D-03
      0.1235000000D+04  0.4192873817D-02
      0.2808000000D+03  0.2152216205D-01
      0.7927000000D+02  0.8353432195D-01
      0.2559000000D+02  0.2395828457D+00
      0.8997000000D+01  0.4428528419D+00
      0.3319000000D+01  0.3517995618D+00
 S   6 1.00       0.000000000000
      0.2808000000D+03 -0.5949224937D-04
      0.7927000000D+02 -0.1148158310D-02
      0.2559000000D+02 -0.1001913745D-01
      0.8997000000D+01 -0.6121949230D-01
      0.3319000000D+01 -0.1732698541D+00
      0.3643000000D+00  0.1072915192D+01
 S   1 1.00       0.000000000000
      0.9059000000D+00  0.1000000000D+01
 S   1 1.00       0.000000000000
      0.1285000000D+00  0.1000000000D+01
 S   1 1.00       0.000000000000
      0.4402000000D-01  0.1000000000D+01
 P   3 1.00       0.000000000000
      0.1871000000D+02  0.3942638716D-01
      0.4133000000D+01  0.2440889849D+00
      0.1200000000D+01  0.8154920089D+00
 P   1 1.00       0.000000000000
      0.3827000000D+00  0.1000000000D+01
 P   1 1.00       0.000000000000
      0.1209000000D+00  0.1000000000D+01
 P   1 1.00       0.000000000000
      0.3569000000D-01  0.1000000000D+01
 D   1 1.00       0.000000000000
      0.1097000000D+01  0.1000000000D+01
 D   1 1.00       0.000000000000
      0.3180000000D+00  0.1000000000D+01
 D   1 1.00       0.000000000000
      0.1000000000D+00  0.1000000000D+01
 F   1 1.00       0.000000000000
      0.7610000000D+00  0.1000000000D+01
 F   1 1.00       0.000000000000
      0.2680000000D+00  0.1000000000D+01
 ****
      4 0
 S   3 1.00       0.000000000000
      0.3387000000D+02  0.2549486323D-01
      0.5095000000D+01  0.1903627659D+00
      0.1159000000D+01  0.8521620222D+00
 S   1 1.00       0.000000000000
      0.3258000000D+00  0.1000000000D+01
 S   1 1.00       0.000000000000
      0.1027000000D+00  0.1000000000D+01
 S   1 1.00       0.000000000000
      0.2526000000D-01  0.1000000000D+01
 P   1 1.00       0.000000000000
      0.1407000000D+01  0.1000000000D+01
 P   1 1.00       0.000000000000
      0.3880000000D+00  0.1000000000D+01
 P   1 1.00       0.000000000000
      0.1020000000D+00  0.1000000000D+01
 D   1 1.00       0.000000000000
      0.1057000000D+01  0.1000000000D+01
 D   1 1.00       0.000000000000
      0.2470000000D+00  0.1000000000D+01
 ****
      5 0
 S   3 1.00       0.000000000000
      0.3387000000D+02  0.2549486323D-01
      0.5095000000D+01  0.1903627659D+00
      0.1159000000D+01  0.8521620222D+00
 S   1 1.00       0.000000000000
      0.3258000000D+00  0.1000000000D+01
 S   1 1.00       0.000000000000
      0.1027000000D+00  0.1000000000D+01
 S   1 1.00       0.000000000000
      0.2526000000D-01  0.1000000000D+01
 P   1 1.00       0.000000000000
      0.1407000000D+01  0.1000000000D+01
 P   1 1.00       0.000000000000
      0.3880000000D+00  0.1000000000D+01
 P   1 1.00       0.000000000000
      0.1020000000D+00  0.1000000000D+01
 D   1 1.00       0.000000000000
      0.1057000000D+01  0.1000000000D+01
 D   1 1.00       0.000000000000
      0.2470000000D+00  0.1000000000D+01
 ****
      6 0
 S   3 1.00       0.000000000000
      0.3387000000D+02  0.2549486323D-01
      0.5095000000D+01  0.1903627659D+00
      0.1159000000D+01  0.8521620222D+00
 S   1 1.00       0.000000000000
      0.3258000000D+00  0.1000000000D+01
 S   1 1.00       0.000000000000
      0.1027000000D+00  0.1000000000D+01
 S   1 1.00       0.000000000000
      0.2526000000D-01  0.1000000000D+01
 P   1 1.00       0.000000000000
      0.1407000000D+01  0.1000000000D+01
 P   1 1.00       0.000000000000
      0.3880000000D+00  0.1000000000D+01
 P   1 1.00       0.000000000000
      0.1020000000D+00  0.1000000000D+01
 D   1 1.00       0.000000000000
      0.1057000000D+01  0.1000000000D+01
 D   1 1.00       0.000000000000
      0.2470000000D+00  0.1000000000D+01
 ****
      7 0
 S   7 1.00       0.000000000000
      0.1533000000D+05  0.5198089434D-03
      0.2299000000D+04  0.4020256215D-02
      0.5224000000D+03  0.2071282673D-01
      0.1473000000D+03  0.8101055358D-01
      0.4755000000D+02  0.2359629851D+00
      0.1676000000D+02  0.4426534455D+00
      0.6207000000D+01  0.3570644227D+00
 S   6 1.00       0.000000000000
      0.5224000000D+03 -0.4421150084D-04
      0.1473000000D+03 -0.1225910413D-02
      0.4755000000D+02 -0.1055177248D-01
      0.1676000000D+02 -0.6744526326D-01
      0.6207000000D+01 -0.1711986073D+00
      0.6882000000D+00  0.1073298561D+01
 S   1 1.00       0.000000000000
      0.1752000000D+01  0.1000000000D+01
 S   1 1.00       0.000000000000
      0.2384000000D+00  0.1000000000D+01
 S   1 1.00       0.000000000000
      0.7376000000D-01  0.1000000000D+01
 P   3 1.00       0.000000000000
      0.3446000000D+02  0.4116348957D-01
      0.7749000000D+01  0.2577628359D+00
      0.2280000000D+01  0.8024192744D+00
 P   1 1.00       0.000000000000
      0.7156000000D+00  0.1000000000D+01
 P   1 1.00       0.000000000000
      0.2140000000D+00  0.1000000000D+01
 P   1 1.00       0.000000000000
      0.5974000000D-01  0.1000000000D+01
 D   1 1.00       0.000000000000
      0.2314000000D+01  0.1000000000D+01
 D   1 1.00       0.000000000000
      0.6450000000D+00  0.1000000000D+01
 D   1 1.00       0.000000000000
      0.2140000000D+00  0.1000000000D+01
 F   1 1.00       0.000000000000
      0.1428000000D+01  0.1000000000D+01
 F   1 1.00       0.000000000000
      0.5000000000D+00  0.1000000000D+01
 ****
      8 0
 S   3 1.00       0.000000000000
      0.3387000000D+02  0.2549486323D-01
      0.5095000000D+01  0.1903627659D+00
      0.1159000000D+01  0.8521620222D+00
 S   1 1.00       0.000000000000
      0.3258000000D+00  0.1000000000D+01
 S   1 1.00       0.000000000000
      0.1027000000D+00  0.1000000000D+01
 S   1 1.00       0.000000000000
      0.2526000000D-01  0.1000000000D+01
 P   1 1.00       0.000000000000
      0.1407000000D+01  0.1000000000D+01
 P   1 1.00       0.000000000000
      0.3880000000D+00  0.1000000000D+01
 P   1 1.00       0.000000000000
      0.1020000000D+00  0.1000000000D+01
 D   1 1.00       0.000000000000
      0.1057000000D+01  0.1000000000D+01
 D   1 1.00       0.000000000000
      0.2470000000D+00  0.1000000000D+01
 ****

 There are   175 symmetry adapted basis functions of A'  symmetry.
 There are   101 symmetry adapted basis functions of A"  symmetry.
 Integral buffers will be    131072 words long.
 Raffenetti 2 integral format.
 Two-electron integral symmetry is turned on.
   276 basis functions,   396 primitive gaussians,   320 cartesian basis functions
    16 alpha electrons       16 beta electrons
       nuclear repulsion energy       121.1754184242 Hartrees.
 NAtoms=    8 NActive=    8 NUniq=    7 SFac= 1.31D+00 NAtFMM=   50 NAOKFM=F Big=F
 ------------------------------------------------------------------------------
 Polarizable Continuum Model (PCM)
 =================================
 Model                : PCM.
 Atomic radii         : UFF (Universal Force Field).
 Polarization charges : Total charges.
 Charge compensation  : None.
 Solution method      : Matrix inversion.
 Cavity type          : Scaled VdW (van der Waals Surface) (Alpha=1.100).
 Cavity algorithm     : GePol (No added spheres)
                        Default sphere list used, NSphG=    8.
                        Lebedev-Laikov grids with approx.  5.0 points / Ang**2.
                        Smoothing algorithm: Karplus/York (Gamma=1.0000).
                        Polarization charges: spherical gaussians, with
                                              point-specific exponents (IZeta= 3).
                        Self-potential: point-specific (ISelfS= 7).
                        Self-field    : sphere-specific E.n sum rule (ISelfD= 2).
 Solvent              : CycloHexane, Eps=   2.016500 Eps(inf)=   2.035188
 ------------------------------------------------------------------------------
 Spheres list:
 ISph  on   Nord    Re0     Alpha      Xe            Ye            Ze
    1   C      1    1.925   1.100      0.000000      0.153523      0.000000
    2   O      2    1.750   1.100     -0.184021      1.345555      0.000000
    3   C      3    1.925   1.100     -1.064980     -0.903023      0.000000
    4   H      4    1.443   1.100     -0.953728     -1.539347      0.877851
    5   H      5    1.443   1.100     -2.044848     -0.437435      0.000000
    6   H      6    1.443   1.100     -0.953728     -1.539347     -0.877851
    7   O      7    1.750   1.100      1.242078     -0.387019      0.000000
    8   H      8    1.443   1.100      1.877731      0.344829      0.000000
 ------------------------------------------------------------------------------
 One-electron integrals computed using PRISM.
 NBasis=   276 RedAO= T  NBF=   175   101
 NBsUse=   276 1.00D-06 NBFU=   175   101
 Initial guess read from the checkpoint file:  azido-azetikoa-b3lyp-acct.chk
 B after Tr=     0.000000    0.000000    0.000000
         Rot=    1.000000    0.000000    0.000000    0.000000 Ang=   0.00 deg.
 Initial guess orbital symmetries:
       Occupied  (A') (A') (A') (A') (A') (A') (A') (A') (A') (A')
                 (A") (A') (A') (A") (A") (A')
       Virtual   (A') (A") (A') (A") (A') (A') (A') (A") (A') (A')
                 (A") (A') (A') (A') (A") (A') (A') (A") (A') (A')
                 (A") (A') (A") (A') (A') (A') (A") (A') (A") (A')
                 (A') (A') (A") (A") (A') (A') (A') (A") (A") (A')
                 (A') (A') (A') (A') (A') (A") (A") (A') (A') (A')
                 (A") (A') (A') (A") (A') (A') (A") (A') (A") (A')
                 (A") (A') (A") (A') (A') (A") (A') (A") (A") (A')
                 (A') (A") (A') (A') (A") (A") (A') (A') (A') (A')
                 (A') (A") (A') (A") (A") (A') (A') (A") (A") (A')
                 (A') (A') (A") (A') (A") (A') (A') (A') (A") (A')
                 (A") (A') (A') (A") (A') (A") (A') (A") (A') (A')
                 (A") (A') (A") (A") (A') (A') (A") (A') (A') (A')
                 (A") (A') (A') (A') (A") (A") (A") (A') (A') (A')
                 (A") (A") (A') (A") (A') (A') (A') (A') (A") (A')
                 (A") (A') (A') (A") (A') (A') (A") (A') (A") (A')
                 (A') (A') (A") (A") (A') (A") (A') (A') (A') (A')
                 (A") (A") (A') (A') (A") (A') (A") (A') (A") (A')
                 (A") (A') (A') (A') (A") (A") (A') (A") (A') (A")
                 (A') (A') (A') (A") (A") (A') (A") (A') (A") (A')
                 (A") (A') (A') (A") (A') (A") (A') (A') (A") (A')
                 (A") (A') (A') (A") (A') (A') (A') (A") (A') (A')
                 (A") (A') (A") (A') (A") (A') (A") (A') (A') (A')
                 (A") (A") (A') (A') (A') (A') (A") (A') (A') (A')
                 (A") (A') (A") (A') (A") (A") (A') (A') (A") (A")
                 (A') (A') (A") (A") (A') (A") (A') (A') (A") (A")
                 (A') (A') (A') (A') (A') (A') (A') (A') (A') (A')
 Requested convergence on RMS density matrix=1.00D-08 within 200 cycles.
 Requested convergence on MAX density matrix=1.00D-06.
 Requested convergence on             energy=1.00D-06.
 No special actions if energy rises.
 Error on total polarization charges =  0.00490
 SCF Done:  E(RB3LYP) =  -229.188772416     A.U. after    1 cycles
             Convg  =    0.1033D-08             -V/T =  2.0061
 ExpMin= 2.53D-02 ExpMax= 1.53D+04 ExpMxC= 5.22D+02 IAcc=3 IRadAn=         5 AccDes= 0.00D+00
 HarFok:  IExCor=  205 AccDes= 0.00D+00 IRadAn=         5 IDoV=-2
 ScaDFX=  1.000000  1.000000  1.000000  1.000000
 Range of M.O.s used for correlation:     5   276
 NBasis=   276 NAE=    16 NBE=    16 NFC=     4 NFV=     0
 NROrb=    272 NOA=    12 NOB=    12 NVA=   260 NVB=   260

 **** Warning!!: The largest alpha MO coefficient is  0.44872370D+02

 Would need an additional  3069300000 words for in-memory AO integral storage.
 NEqPCM:  Using non-equilibrium solvation (IEInf=1, Eps=   2.0165, EpsInf=   2.0352)
 Orbital symmetries:
       Occupied  (A') (A') (A') (A') (A') (A') (A') (A') (A') (A')
                 (A") (A') (A') (A") (A") (A')
       Virtual   (A') (A") (A') (A") (A') (A') (A') (A") (A') (A')
                 (A") (A') (A') (A') (A") (A') (A') (A") (A') (A')
                 (A") (A') (A") (A') (A') (A') (A") (A') (A") (A')
                 (A') (A') (A") (A") (A') (A') (A') (A") (A") (A')
                 (A') (A') (A') (A') (A') (A") (A") (A') (A') (A')
                 (A") (A') (A') (A") (A') (A') (A") (A') (A") (A')
                 (A") (A') (A") (A') (A') (A") (A') (A") (A") (A')
                 (A') (A") (A') (A') (A") (A") (A') (A') (A') (A')
                 (A') (A") (A') (A") (A") (A') (A') (A") (A") (A')
                 (A') (A') (A") (A') (A") (A') (A') (A') (A") (A')
                 (A") (A') (A') (A") (A') (A") (A') (A") (A') (A')
                 (A") (A') (A") (A") (A') (A') (A") (A') (A') (A')
                 (A") (A') (A') (A') (A") (A") (A") (A') (A') (A')
                 (A") (A") (A') (A") (A') (A') (A') (A') (A") (A')
                 (A") (A') (A') (A") (A') (A') (A") (A') (A") (A')
                 (A') (A') (A") (A") (A') (A") (A') (A') (A') (A')
                 (A") (A") (A') (A') (A") (A') (A") (A') (A") (A')
                 (A") (A') (A') (A') (A") (A") (A') (A") (A') (A")
                 (A') (A') (A') (A") (A") (A') (A") (A') (A") (A')
                 (A") (A') (A') (A") (A') (A") (A') (A') (A") (A')
                 (A") (A') (A') (A") (A') (A') (A') (A") (A') (A')
                 (A") (A') (A") (A') (A") (A') (A") (A') (A') (A')
                 (A") (A") (A') (A') (A') (A') (A") (A') (A') (A')
                 (A") (A') (A") (A') (A") (A") (A') (A') (A") (A")
                 (A') (A') (A") (A") (A') (A") (A') (A') (A") (A")
                 (A') (A') (A') (A') (A') (A') (A') (A') (A') (A')
    12 initial guesses have been made.
 Convergence on wavefunction:    0.001000000000000
 Iteration     1 Dimension    12 NMult    12
 CISAX will form    12 AO SS matrices at one time.
 New state      1 was old state      2
 New state      2 was old state      1
 Iteration     2 Dimension    18 NMult    18
 Iteration     3 Dimension    24 NMult    24
 Iteration     4 Dimension    30 NMult    30
 Iteration     5 Dimension    32 NMult    32
 Iteration     6 Dimension    34 NMult    34
 ***********************************************************************
 Excited states from <AA,BB:AA,BB> singles matrix:
 ***********************************************************************
 
 Ground to excited state transition densities written to RWF  633
 Ground to excited state transition electric dipole moments (Au):
       state          X           Y           Z        Dip. S.      Osc.
         1         0.0000      0.0000      0.0631      0.0040      0.0006
         2         0.5292      0.1813      0.0000      0.3129      0.0515
         3        -0.0285     -0.0856      0.0000      0.0081      0.0015
 Ground to excited state transition velocity dipole moments (Au):
       state          X           Y           Z        Dip. S.      Osc.
         1         0.0000      0.0000     -0.0133      0.0002      0.0006
         2        -0.1318     -0.0454      0.0000      0.0194      0.0525
         3         0.0066      0.0235      0.0000      0.0006      0.0015
 Ground to excited state transition magnetic dipole moments (Au):
       state          X           Y           Z
         1         0.2410     -0.9353      0.0000
         2         0.0000      0.0000      0.5063
         3         0.0000      0.0000     -0.0351
 Ground to excited state transition velocity quadrupole moments (Au):
       state          XX          YY          ZZ          XY          XZ          YZ
         1         0.0000      0.0000      0.0000      0.0000      0.1206      0.0846
         2        -0.1324      0.0396     -0.0064     -0.0664      0.0000      0.0000
         3         0.2790      0.3246      0.0960      0.1615      0.0000      0.0000
 <0|del|b> * <b|rxdel|0> + <0|del|b> * <b|delr+rdel|0>
 Rotatory Strengths (R) in cgs (10**-40 erg-esu-cm/Gauss)
       state          XX          YY          ZZ    R(velocity)
         1         0.0000      0.0000      0.0000      0.0000
         2         0.0000      0.0000      0.0000      0.0000
         3         0.0000      0.0000      0.0000      0.0000
 1/2[<0|r|b>*<b|rxdel|0> + (<0|rxdel|b>*<b|r|0>)*]
 Rotatory Strengths (R) in cgs (10**-40 erg-esu-cm/Gauss)
       state          XX          YY          ZZ     R(length)
         1         0.0000      0.0000      0.0000      0.0000
         2         0.0000      0.0000      0.0000      0.0000
         3         0.0000      0.0000      0.0000      0.0000
  1/2[<0|del|b>*<b|r|0> + (<0|r|b>*<b|del|0>)*] (Au)
       state          X           Y           Z        Dip. S.   Osc.(frdel)
         1         0.0000      0.0000     -0.0008      0.0008      0.0006
         2        -0.0697     -0.0082      0.0000      0.0780      0.0520
         3        -0.0002     -0.0020      0.0000      0.0022      0.0015

 Excitation energies and oscillator strengths:
 
 Excited State   1:      Singlet-A"     5.8313 eV  212.62 nm  f=0.0006  <S**2>=0.000
      16 -> 18         0.69500
      16 -> 20        -0.11894
 This state for optimization and/or second-order correction.
 Total Energy, E(TD-HF/TD-KS) =  -228.974477295    
 Copying the excited state density for this state as the 1-particle RhoCI density.
 
 Excited State   2:      Singlet-A'     6.7133 eV  184.68 nm  f=0.0515  <S**2>=0.000
      16 -> 17         0.69622
 
 Excited State   3:      Singlet-A'     7.4397 eV  166.65 nm  f=0.0015  <S**2>=0.000
      15 -> 18        -0.15268
      16 -> 19         0.68014
 SavETr:  write IOETrn=   770 NScale= 10 NData=  16 NLR=1 LETran=      64.

 **********************************************************************

            Population analysis using the SCF density.

 **********************************************************************

 Orbital symmetries:
       Occupied  (A') (A') (A') (A') (A') (A') (A') (A') (A') (A')
                 (A") (A') (A') (A") (A") (A')
       Virtual   (A') (A") (A') (A") (A') (A') (A') (A") (A') (A')
                 (A") (A') (A') (A') (A") (A') (A') (A") (A') (A')
                 (A") (A') (A") (A') (A') (A') (A") (A') (A") (A')
                 (A') (A') (A") (A") (A') (A') (A') (A") (A") (A')
                 (A') (A') (A') (A') (A') (A") (A") (A') (A') (A')
                 (A") (A') (A') (A") (A') (A') (A") (A') (A") (A')
                 (A") (A') (A") (A') (A') (A") (A') (A") (A") (A')
                 (A') (A") (A') (A') (A") (A") (A') (A') (A') (A')
                 (A') (A") (A') (A") (A") (A') (A') (A") (A") (A')
                 (A') (A') (A") (A') (A") (A') (A') (A') (A") (A')
                 (A") (A') (A') (A") (A') (A") (A') (A") (A') (A')
                 (A") (A') (A") (A") (A') (A') (A") (A') (A') (A')
                 (A") (A') (A') (A') (A") (A") (A") (A') (A') (A')
                 (A") (A") (A') (A") (A') (A') (A') (A') (A") (A')
                 (A") (A') (A') (A") (A') (A') (A") (A') (A") (A')
                 (A') (A') (A") (A") (A') (A") (A') (A') (A') (A')
                 (A") (A") (A') (A') (A") (A') (A") (A') (A") (A')
                 (A") (A') (A') (A') (A") (A") (A') (A") (A') (A")
                 (A') (A') (A') (A") (A") (A') (A") (A') (A") (A')
                 (A") (A') (A') (A") (A') (A") (A') (A') (A") (A')
                 (A") (A') (A') (A") (A') (A') (A') (A") (A') (A')
                 (A") (A') (A") (A') (A") (A') (A") (A') (A') (A')
                 (A") (A") (A') (A') (A') (A') (A") (A') (A') (A')
                 (A") (A') (A") (A') (A") (A") (A') (A') (A") (A")
                 (A') (A') (A") (A") (A') (A") (A') (A') (A") (A")
                 (A') (A') (A') (A') (A') (A') (A') (A') (A') (A')
 The electronic state is 1-A'.
 Alpha  occ. eigenvalues --  -19.18599 -19.13011 -10.31979 -10.18995  -1.11924
 Alpha  occ. eigenvalues --   -1.03037  -0.76810  -0.62275  -0.50429  -0.49065
 Alpha  occ. eigenvalues --   -0.48079  -0.42004  -0.40867  -0.40211  -0.33837
 Alpha  occ. eigenvalues --   -0.29402
 Alpha virt. eigenvalues --   -0.01522  -0.01145   0.00660   0.02400   0.02405
 Alpha virt. eigenvalues --    0.04425   0.05749   0.06444   0.06842   0.08229
 Alpha virt. eigenvalues --    0.08345   0.08542   0.10984   0.11448   0.11642
 Alpha virt. eigenvalues --    0.12419   0.14699   0.15143   0.17096   0.18266
 Alpha virt. eigenvalues --    0.18897   0.19581   0.20458   0.20981   0.23001
 Alpha virt. eigenvalues --    0.23749   0.25580   0.26580   0.27404   0.28317
 Alpha virt. eigenvalues --    0.28443   0.30367   0.30877   0.31716   0.31829
 Alpha virt. eigenvalues --    0.31966   0.34083   0.34546   0.35861   0.36204
 Alpha virt. eigenvalues --    0.36899   0.37896   0.40586   0.41216   0.42808
 Alpha virt. eigenvalues --    0.42810   0.43759   0.46386   0.50791   0.52179
 Alpha virt. eigenvalues --    0.52753   0.55871   0.57523   0.58081   0.61047
 Alpha virt. eigenvalues --    0.62185   0.65132   0.66399   0.66891   0.67002
 Alpha virt. eigenvalues --    0.68970   0.69916   0.72459   0.73312   0.74292
 Alpha virt. eigenvalues --    0.74378   0.76369   0.76724   0.78202   0.79002
 Alpha virt. eigenvalues --    0.80963   0.82980   0.83152   0.85337   0.85639
 Alpha virt. eigenvalues --    0.86502   0.87272   0.88341   0.89673   0.90773
 Alpha virt. eigenvalues --    0.94752   0.96013   0.98391   0.99000   1.00713
 Alpha virt. eigenvalues --    1.03771   1.04524   1.05359   1.06516   1.06596
 Alpha virt. eigenvalues --    1.07662   1.11178   1.14216   1.14562   1.14983
 Alpha virt. eigenvalues --    1.18579   1.23556   1.25330   1.26880   1.27392
 Alpha virt. eigenvalues --    1.28389   1.30913   1.32751   1.33985   1.36628
 Alpha virt. eigenvalues --    1.38564   1.41815   1.44259   1.45523   1.45957
 Alpha virt. eigenvalues --    1.46387   1.47803   1.50065   1.54716   1.56073
 Alpha virt. eigenvalues --    1.57184   1.58617   1.60687   1.61901   1.67221
 Alpha virt. eigenvalues --    1.68458   1.70818   1.72967   1.81728   1.84904
 Alpha virt. eigenvalues --    1.86871   1.90326   1.91762   1.96147   1.98049
 Alpha virt. eigenvalues --    1.98645   2.02486   2.02812   2.06559   2.08331
 Alpha virt. eigenvalues --    2.14183   2.16621   2.17620   2.18529   2.24209
 Alpha virt. eigenvalues --    2.28324   2.30714   2.32047   2.33740   2.40457
 Alpha virt. eigenvalues --    2.44445   2.45704   2.47868   2.50217   2.53844
 Alpha virt. eigenvalues --    2.56411   2.61986   2.63902   2.68960   2.69750
 Alpha virt. eigenvalues --    2.70920   2.73736   2.83856   2.87929   2.92521
 Alpha virt. eigenvalues --    2.94313   3.04657   3.05525   3.08389   3.13152
 Alpha virt. eigenvalues --    3.20872   3.24611   3.27479   3.28570   3.28968
 Alpha virt. eigenvalues --    3.33640   3.36965   3.44162   3.48749   3.49552
 Alpha virt. eigenvalues --    3.54423   3.58138   3.59497   3.61610   3.64163
 Alpha virt. eigenvalues --    3.65085   3.66952   3.70556   3.72738   3.78649
 Alpha virt. eigenvalues --    3.81147   3.83187   3.92838   3.94315   3.97158
 Alpha virt. eigenvalues --    3.98485   4.00691   4.03771   4.12736   4.14556
 Alpha virt. eigenvalues --    4.16778   4.20844   4.27707   4.28873   4.30009
 Alpha virt. eigenvalues --    4.36161   4.37349   4.43589   4.44945   4.49076
 Alpha virt. eigenvalues --    4.55680   4.63002   4.66022   4.68039   4.71797
 Alpha virt. eigenvalues --    4.80053   4.80484   4.86817   4.93965   4.98665
 Alpha virt. eigenvalues --    5.00990   5.06838   5.10752   5.16266   5.24844
 Alpha virt. eigenvalues --    5.25825   5.33655   5.36856   5.49673   5.63846
 Alpha virt. eigenvalues --    5.64927   5.74209   5.80242   5.88353   6.10476
 Alpha virt. eigenvalues --    6.16818   6.23145   6.28624   6.32178   6.35477
 Alpha virt. eigenvalues --    6.37226   6.40243   6.49868   6.55712   6.73117
 Alpha virt. eigenvalues --    6.75662   6.79424   6.80663   6.81847   6.82383
 Alpha virt. eigenvalues --    6.84847   6.98491   7.01491   7.06442   7.11376
 Alpha virt. eigenvalues --    7.19518   7.30871   7.37415   7.48270   7.70221
 Alpha virt. eigenvalues --    7.99107  14.43836  14.89817  16.24404  17.95852
     Molecular Orbital Coefficients:
                           1         2         3         4         5
                           O         O         O         O         O
     Eigenvalues --   -19.18599 -19.13011 -10.31979 -10.18995  -1.11924
   1 1   C  1S          0.00027   0.00034   0.97743  -0.00093  -0.11353
   2        2S          0.00199   0.00313   0.01538   0.00132   0.24073
   3        3S         -0.00016   0.00187   0.05606   0.00096   0.06356
   4        4S          0.01287  -0.00435   0.02274   0.01292   0.13742
   5        5S          0.00178  -0.00709  -0.01523   0.00771  -0.02147
   6        6PX        -0.00008  -0.00011   0.00082  -0.00011   0.04389
   7        6PY         0.00003   0.00045   0.00026  -0.00016   0.03539
   8        6PZ         0.00000   0.00000   0.00000   0.00000   0.00000
   9        7PX         0.00576  -0.00012   0.00132  -0.00179   0.04205
  10        7PY        -0.00244   0.00452   0.01088  -0.00304   0.02094
  11        7PZ         0.00000   0.00000   0.00000   0.00000   0.00000
  12        8PX        -0.00439  -0.00581  -0.02638  -0.00958  -0.05805
  13        8PY        -0.00085  -0.01028  -0.03665  -0.00333  -0.05959
  14        8PZ         0.00000   0.00000   0.00000   0.00000   0.00000
  15        9PX         0.00105   0.00046   0.00299  -0.00078   0.00830
  16        9PY         0.00020   0.00058   0.00119   0.00023   0.00253
  17        9PZ         0.00000   0.00000   0.00000   0.00000   0.00000
  18       10D 0       -0.00028  -0.00022  -0.00257   0.00003  -0.01100
  19       10D+1        0.00000   0.00000   0.00000   0.00000   0.00000
  20       10D-1        0.00000   0.00000   0.00000   0.00000   0.00000
  21       10D+2        0.00045  -0.00047  -0.00126   0.00023  -0.00210
  22       10D-2       -0.00046  -0.00009  -0.00069   0.00023  -0.00636
  23       11D 0       -0.00060   0.00158   0.00261   0.00127  -0.01661
  24       11D+1        0.00000   0.00000   0.00000   0.00000   0.00000
  25       11D-1        0.00000   0.00000   0.00000   0.00000   0.00000
  26       11D+2        0.00066   0.00210   0.00028  -0.00235   0.00174
  27       11D-2       -0.00035  -0.00022  -0.00427  -0.00140  -0.01000
  28       12D 0       -0.00117   0.00141   0.00260  -0.00020   0.00176
  29       12D+1        0.00000   0.00000   0.00000   0.00000   0.00000
  30       12D-1        0.00000   0.00000   0.00000   0.00000   0.00000
  31       12D+2        0.00473   0.00596   0.01047   0.00051   0.01371
  32       12D-2        0.00419   0.00398   0.01226   0.00196   0.02700
  33       13F 0        0.00000   0.00000   0.00000   0.00000   0.00000
  34       13F+1       -0.00027  -0.00006  -0.00018  -0.00028  -0.00150
  35       13F-1        0.00011   0.00010  -0.00088  -0.00024  -0.00071
  36       13F+2        0.00000   0.00000   0.00000   0.00000   0.00000
  37       13F-2        0.00000   0.00000   0.00000   0.00000   0.00000
  38       13F+3       -0.00014  -0.00025   0.00094  -0.00072   0.00409
  39       13F-3       -0.00018   0.00066  -0.00171   0.00055  -0.00780
  40       14F 0        0.00000   0.00000   0.00000   0.00000   0.00000
  41       14F+1        0.00025   0.00037   0.00197   0.00045   0.00237
  42       14F-1       -0.00063   0.00072   0.00261  -0.00190   0.00360
  43       14F+2        0.00000   0.00000   0.00000   0.00000   0.00000
  44       14F-2        0.00000   0.00000   0.00000   0.00000   0.00000
  45       14F+3        0.00091  -0.00152  -0.00675  -0.00435  -0.00711
  46       14F-3        0.00244   0.00343   0.00610   0.00529  -0.00136
  47 2   O  1S          0.00003   0.97320   0.00019   0.00021  -0.10243
  48        2S          0.00046  -0.00944   0.00291   0.00127   0.22962
  49        3S         -0.00002   0.05157   0.00123   0.00004   0.06766
  50        4S          0.00126   0.00918   0.00216   0.00228   0.12112
  51        5S          0.00430   0.00711   0.01564   0.00100   0.03085
  52        6PX        -0.00001   0.00029   0.00012  -0.00001   0.01506
  53        6PY         0.00004  -0.00155  -0.00075  -0.00001  -0.05608
  54        6PZ         0.00000   0.00000   0.00000   0.00000   0.00000
  55        7PX         0.00015   0.00003  -0.00062   0.00007   0.01716
  56        7PY        -0.00040   0.00015   0.00289  -0.00044  -0.06367
  57        7PZ         0.00000   0.00000   0.00000   0.00000   0.00000
  58        8PX         0.00157   0.00050  -0.00094  -0.00168   0.00425
  59        8PY        -0.00018   0.00534   0.01986  -0.00098   0.00083
  60        8PZ         0.00000   0.00000   0.00000   0.00000   0.00000
  61        9PX        -0.00051   0.00004  -0.00109  -0.00055  -0.00591
  62        9PY        -0.00092  -0.00054  -0.00121  -0.00096  -0.00217
  63        9PZ         0.00000   0.00000   0.00000   0.00000   0.00000
  64       10D 0       -0.00005  -0.00024  -0.00014  -0.00014  -0.00210
  65       10D+1        0.00000   0.00000   0.00000   0.00000   0.00000
  66       10D-1        0.00000   0.00000   0.00000   0.00000   0.00000
  67       10D+2        0.00004  -0.00034  -0.00022   0.00009  -0.00361
  68       10D-2       -0.00004  -0.00010  -0.00002   0.00004  -0.00184
  69       11D 0        0.00013   0.00081   0.00244   0.00055  -0.00483
  70       11D+1        0.00000   0.00000   0.00000   0.00000   0.00000
  71       11D-1        0.00000   0.00000   0.00000   0.00000   0.00000
  72       11D+2       -0.00037   0.00089   0.00392  -0.00083  -0.00739
  73       11D-2        0.00020   0.00018   0.00099  -0.00015  -0.00480
  74       12D 0        0.00027   0.00215   0.00593   0.00099   0.00468
  75       12D+1        0.00000   0.00000   0.00000   0.00000   0.00000
  76       12D-1        0.00000   0.00000   0.00000   0.00000   0.00000
  77       12D+2       -0.00052   0.00234   0.00725  -0.00152   0.00724
  78       12D-2       -0.00086   0.00006   0.00075   0.00043   0.00013
  79       13F 0        0.00000   0.00000   0.00000   0.00000   0.00000
  80       13F+1        0.00001   0.00000   0.00006  -0.00005  -0.00035
  81       13F-1        0.00002   0.00004  -0.00015   0.00005   0.00150
  82       13F+2        0.00000   0.00000   0.00000   0.00000   0.00000
  83       13F-2        0.00000   0.00000   0.00000   0.00000   0.00000
  84       13F+3        0.00002   0.00000   0.00018   0.00006  -0.00123
  85       13F-3       -0.00004   0.00002  -0.00032  -0.00003   0.00119
  86       14F 0        0.00000   0.00000   0.00000   0.00000   0.00000
  87       14F+1        0.00008   0.00007   0.00001   0.00023  -0.00057
  88       14F-1       -0.00012  -0.00078  -0.00188  -0.00036   0.00050
  89       14F+2        0.00000   0.00000   0.00000   0.00000   0.00000
  90       14F-2        0.00000   0.00000   0.00000   0.00000   0.00000
  91       14F+3        0.00012   0.00014   0.00063  -0.00036  -0.00101
  92       14F-3        0.00041  -0.00044  -0.00182   0.00091   0.00020
  93 3   C  1S          0.00009   0.00012   0.00112   0.97735  -0.01553
  94        2S          0.00069   0.00081   0.00098   0.01607   0.03276
  95        3S          0.00049   0.00016   0.00065   0.05534   0.01000
  96        4S         -0.02539  -0.01198  -0.02307  -0.05228  -0.09202
  97        5S         -0.00141   0.00303   0.00838  -0.00905   0.00691
  98        6PX        -0.00006  -0.00007   0.00008   0.00012   0.00993
  99        6PY        -0.00005  -0.00007   0.00015   0.00009   0.00840
 100        6PZ         0.00000   0.00000   0.00000   0.00000   0.00000
 101        7PX         0.00160   0.00201   0.00548   0.00069   0.00719
 102        7PY         0.00072   0.00208   0.00437  -0.00074   0.00392
 103        7PZ         0.00000   0.00000   0.00000   0.00000   0.00000
 104        8PX        -0.00287  -0.00411  -0.01580  -0.00270  -0.03674
 105        8PY        -0.00451  -0.00203  -0.01364  -0.01205  -0.04318
 106        8PZ         0.00000   0.00000   0.00000   0.00000   0.00000
 107        9PX        -0.00029  -0.00019  -0.00031  -0.00157  -0.00265
 108        9PY        -0.00035   0.00089   0.00245  -0.00186   0.00287
 109        9PZ         0.00000   0.00000   0.00000   0.00000   0.00000
 110       10D 0       -0.00004  -0.00014  -0.00034   0.00008  -0.00079
 111       10D+1        0.00000   0.00000   0.00000   0.00000   0.00000
 112       10D-1        0.00000   0.00000   0.00000   0.00000   0.00000
 113       10D+2        0.00008  -0.00013  -0.00013  -0.00001   0.00018
 114       10D-2        0.00001   0.00013   0.00051  -0.00062   0.00101
 115       11D 0       -0.00012  -0.00026   0.00270   0.00221   0.00266
 116       11D+1        0.00000   0.00000   0.00000   0.00000   0.00000
 117       11D-1        0.00000   0.00000   0.00000   0.00000   0.00000
 118       11D+2       -0.00203   0.00131   0.00257  -0.00138   0.00534
 119       11D-2        0.00229   0.00220  -0.00252   0.00247  -0.00631
 120       12D 0       -0.00056  -0.00149  -0.00229   0.00295  -0.00052
 121       12D+1        0.00000   0.00000   0.00000   0.00000   0.00000
 122       12D-1        0.00000   0.00000   0.00000   0.00000   0.00000
 123       12D+2        0.00125   0.00217   0.00308   0.00245   0.00656
 124       12D-2       -0.00039  -0.00123  -0.00463  -0.00082  -0.01150
 125       13F 0        0.00000   0.00000   0.00000   0.00000   0.00000
 126       13F+1       -0.00009  -0.00004   0.00021   0.00078  -0.00010
 127       13F-1        0.00007   0.00006   0.00039  -0.00175   0.00004
 128       13F+2        0.00000   0.00000   0.00000   0.00000   0.00000
 129       13F-2        0.00000   0.00000   0.00000   0.00000   0.00000
 130       13F+3       -0.00005  -0.00021   0.00074  -0.00056   0.00126
 131       13F-3       -0.00017   0.00001  -0.00055   0.00095  -0.00014
 132       14F 0        0.00000   0.00000   0.00000   0.00000   0.00000
 133       14F+1       -0.00094   0.00040   0.00507  -0.00288   0.00529
 134       14F-1        0.00096   0.00108   0.00068   0.00699   0.00297
 135       14F+2        0.00000   0.00000   0.00000   0.00000   0.00000
 136       14F-2        0.00000   0.00000   0.00000   0.00000   0.00000
 137       14F+3       -0.00116  -0.00107  -0.00035  -0.00004  -0.00044
 138       14F-3       -0.00055   0.00110   0.00181  -0.00378   0.00129
 139 4   H  1S         -0.00005   0.00003  -0.00013   0.00005   0.00317
 140        2S          0.00284   0.00230   0.00039   0.00613   0.00772
 141        3S          0.00456   0.00309  -0.00285  -0.00024  -0.00626
 142        4S         -0.00002   0.00046   0.00102  -0.00031   0.00238
 143        5PX        -0.00003   0.00000   0.00008   0.00006   0.00027
 144        5PY         0.00000   0.00000  -0.00002  -0.00055   0.00030
 145        5PZ        -0.00006  -0.00004  -0.00008   0.00061  -0.00040
 146        6PX         0.00050  -0.00027  -0.00311   0.00119  -0.00228
 147        6PY         0.00082   0.00043  -0.00084  -0.00172   0.00031
 148        6PZ        -0.00013  -0.00047  -0.00137   0.00336  -0.00071
 149        7PX         0.00037  -0.00028  -0.00131   0.00058  -0.00174
 150        7PY         0.00110   0.00029  -0.00134  -0.00216  -0.00283
 151        7PZ        -0.00053  -0.00045   0.00112   0.00089   0.00308
 152        8D 0       -0.00003   0.00004   0.00031  -0.00068   0.00004
 153        8D+1       -0.00004   0.00002   0.00024  -0.00019  -0.00006
 154        8D-1       -0.00008  -0.00003  -0.00002   0.00118  -0.00020
 155        8D+2        0.00001   0.00003   0.00014   0.00050  -0.00004
 156        8D-2        0.00006  -0.00004  -0.00030   0.00024   0.00014
 157        9D 0       -0.00023   0.00008   0.00056  -0.00111  -0.00034
 158        9D+1        0.00006  -0.00004   0.00004  -0.00016   0.00015
 159        9D-1       -0.00001  -0.00024  -0.00041   0.00182   0.00054
 160        9D+2        0.00008   0.00026   0.00091   0.00076   0.00152
 161        9D-2        0.00026  -0.00008  -0.00148   0.00093  -0.00117
 162 5   H  1S          0.00003  -0.00011  -0.00021   0.00009   0.00281
 163        2S          0.00639   0.00074  -0.00422   0.01198  -0.00234
 164        3S         -0.00288  -0.00782  -0.01940   0.00900  -0.02532
 165        4S          0.00029  -0.00063  -0.00112  -0.00034  -0.00251
 166        5PX         0.00009   0.00000   0.00005  -0.00069   0.00057
 167        5PY        -0.00006   0.00000  -0.00003   0.00034   0.00000
 168        5PZ         0.00000   0.00000   0.00000   0.00000   0.00000
 169        6PX         0.00194   0.00151   0.00070  -0.00127  -0.00103
 170        6PY         0.00000   0.00102  -0.00138   0.00260   0.00047
 171        6PZ         0.00000   0.00000   0.00000   0.00000   0.00000
 172        7PX        -0.00023  -0.00033  -0.00242   0.00091  -0.00342
 173        7PY         0.00043   0.00104   0.00112   0.00110   0.00195
 174        7PZ         0.00000   0.00000   0.00000   0.00000   0.00000
 175        8D 0       -0.00005  -0.00008  -0.00010   0.00066  -0.00018
 176        8D+1        0.00000   0.00000   0.00000   0.00000   0.00000
 177        8D-1        0.00000   0.00000   0.00000   0.00000   0.00000
 178        8D+2        0.00008   0.00017  -0.00011  -0.00070  -0.00007
 179        8D-2       -0.00001   0.00012  -0.00043   0.00112  -0.00013
 180        9D 0       -0.00003  -0.00018   0.00056   0.00081   0.00152
 181        9D+1        0.00000   0.00000   0.00000   0.00000   0.00000
 182        9D-1        0.00000   0.00000   0.00000   0.00000   0.00000
 183        9D+2        0.00017   0.00042   0.00046  -0.00142  -0.00079
 184        9D-2       -0.00009   0.00005  -0.00145   0.00148  -0.00136
 185 6   H  1S         -0.00005   0.00003  -0.00013   0.00005   0.00317
 186        2S          0.00284   0.00230   0.00039   0.00613   0.00772
 187        3S          0.00456   0.00309  -0.00285  -0.00024  -0.00626
 188        4S         -0.00002   0.00046   0.00102  -0.00031   0.00238
 189        5PX        -0.00003   0.00000   0.00008   0.00006   0.00027
 190        5PY         0.00000   0.00000  -0.00002  -0.00055   0.00030
 191        5PZ         0.00006   0.00004   0.00008  -0.00061   0.00040
 192        6PX         0.00050  -0.00027  -0.00311   0.00119  -0.00228
 193        6PY         0.00082   0.00043  -0.00084  -0.00172   0.00031
 194        6PZ         0.00013   0.00047   0.00137  -0.00336   0.00071
 195        7PX         0.00037  -0.00028  -0.00131   0.00058  -0.00174
 196        7PY         0.00110   0.00029  -0.00134  -0.00216  -0.00283
 197        7PZ         0.00053   0.00045  -0.00112  -0.00089  -0.00308
 198        8D 0       -0.00003   0.00004   0.00031  -0.00068   0.00004
 199        8D+1        0.00004  -0.00002  -0.00024   0.00019   0.00006
 200        8D-1        0.00008   0.00003   0.00002  -0.00118   0.00020
 201        8D+2        0.00001   0.00003   0.00014   0.00050  -0.00004
 202        8D-2        0.00006  -0.00004  -0.00030   0.00024   0.00014
 203        9D 0       -0.00023   0.00008   0.00056  -0.00111  -0.00034
 204        9D+1       -0.00006   0.00004  -0.00004   0.00016  -0.00015
 205        9D-1        0.00001   0.00024   0.00041  -0.00182  -0.00054
 206        9D+2        0.00008   0.00026   0.00091   0.00076   0.00152
 207        9D-2        0.00026  -0.00008  -0.00148   0.00093  -0.00117
 208 7   O  1S          0.97324   0.00017   0.00016   0.00021  -0.15465
 209        2S         -0.00915   0.00064   0.00176   0.00129   0.35311
 210        3S          0.05158  -0.00008   0.00053   0.00013   0.10477
 211        4S         -0.00171   0.00445   0.00378   0.00078   0.18661
 212        5S         -0.00019   0.00494   0.00793  -0.00077   0.02598
 213        6PX        -0.00048   0.00010  -0.00021   0.00014  -0.02635
 214        6PY         0.00145  -0.00003   0.00009  -0.00006   0.05024
 215        6PZ         0.00000   0.00000   0.00000   0.00000   0.00000
 216        7PX         0.00141  -0.00088  -0.00100  -0.00167  -0.03326
 217        7PY        -0.00019   0.00026   0.00014   0.00014   0.06047
 218        7PZ         0.00000   0.00000   0.00000   0.00000   0.00000
 219        8PX         0.00198  -0.00085   0.00894  -0.00229   0.00399
 220        8PY        -0.00674   0.00037   0.00773   0.00029   0.01584
 221        8PZ         0.00000   0.00000   0.00000   0.00000   0.00000
 222        9PX        -0.00015  -0.00121  -0.00219  -0.00042  -0.00245
 223        9PY        -0.00054  -0.00071  -0.00113  -0.00098  -0.00191
 224        9PZ         0.00000   0.00000   0.00000   0.00000   0.00000
 225       10D 0       -0.00038  -0.00006  -0.00017  -0.00007  -0.00326
 226       10D+1        0.00000   0.00000   0.00000   0.00000   0.00000
 227       10D-1        0.00000   0.00000   0.00000   0.00000   0.00000
 228       10D+2        0.00016  -0.00006   0.00033   0.00009   0.00117
 229       10D-2        0.00014  -0.00006  -0.00025   0.00011  -0.00044
 230       11D 0        0.00110   0.00013   0.00123   0.00057  -0.00748
 231       11D+1        0.00000   0.00000   0.00000   0.00000   0.00000
 232       11D-1        0.00000   0.00000   0.00000   0.00000   0.00000
 233       11D+2       -0.00097   0.00058  -0.00212  -0.00042   0.00259
 234       11D-2        0.00058  -0.00006   0.00114  -0.00162  -0.00551
 235       12D 0        0.00163  -0.00011   0.00153   0.00059   0.00474
 236       12D+1        0.00000   0.00000   0.00000   0.00000   0.00000
 237       12D-1        0.00000   0.00000   0.00000   0.00000   0.00000
 238       12D+2        0.00022   0.00035  -0.00739   0.00014  -0.00712
 239       12D-2        0.00142   0.00034   0.00110  -0.00195  -0.00063
 240       13F 0        0.00000   0.00000   0.00000   0.00000   0.00000
 241       13F+1       -0.00012   0.00006  -0.00008   0.00000   0.00104
 242       13F-1       -0.00013   0.00002   0.00009   0.00001  -0.00111
 243       13F+2        0.00000   0.00000   0.00000   0.00000   0.00000
 244       13F-2        0.00000   0.00000   0.00000   0.00000   0.00000
 245       13F+3       -0.00013   0.00006   0.00004   0.00017  -0.00084
 246       13F-3        0.00008   0.00002  -0.00019  -0.00008   0.00172
 247       14F 0        0.00000   0.00000   0.00000   0.00000   0.00000
 248       14F+1       -0.00016  -0.00023  -0.00106   0.00012   0.00073
 249       14F-1        0.00066   0.00005   0.00016   0.00017  -0.00045
 250       14F+2        0.00000   0.00000   0.00000   0.00000   0.00000
 251       14F-2        0.00000   0.00000   0.00000   0.00000   0.00000
 252       14F+3        0.00054  -0.00043  -0.00004   0.00021   0.00226
 253       14F-3       -0.00106   0.00032  -0.00235   0.00068   0.00126
 254 8   H  1S          0.00085  -0.00009  -0.00010   0.00019   0.06465
 255        2S          0.00221  -0.00029  -0.00291   0.00514   0.05822
 256        3S         -0.00745  -0.00432  -0.00571   0.00279  -0.01587
 257        4S         -0.00054   0.00014  -0.00040   0.00045  -0.00274
 258        5PX         0.00008  -0.00016   0.00038  -0.00034  -0.00772
 259        5PY        -0.00001   0.00004  -0.00020  -0.00016  -0.00661
 260        5PZ         0.00000   0.00000   0.00000   0.00000   0.00000
 261        6PX         0.00068  -0.00009   0.00102  -0.00136  -0.01140
 262        6PY         0.00029  -0.00002  -0.00229  -0.00208  -0.00554
 263        6PZ         0.00000   0.00000   0.00000   0.00000   0.00000
 264        7PX         0.00275   0.00164   0.00254  -0.00072   0.00544
 265        7PY         0.00012   0.00014  -0.00121  -0.00054   0.00074
 266        7PZ         0.00000   0.00000   0.00000   0.00000   0.00000
 267        8D 0        0.00049  -0.00005  -0.00012  -0.00018  -0.00104
 268        8D+1        0.00000   0.00000   0.00000   0.00000   0.00000
 269        8D-1        0.00000   0.00000   0.00000   0.00000   0.00000
 270        8D+2       -0.00002   0.00009  -0.00053  -0.00009   0.00041
 271        8D-2       -0.00085   0.00008   0.00010   0.00034   0.00235
 272        9D 0        0.00029   0.00005  -0.00108  -0.00012  -0.00126
 273        9D+1        0.00000   0.00000   0.00000   0.00000   0.00000
 274        9D-1        0.00000   0.00000   0.00000   0.00000   0.00000
 275        9D+2       -0.00032  -0.00025  -0.00045  -0.00003   0.00186
 276        9D-2        0.00007   0.00018   0.00009   0.00070  -0.00017
                           6         7         8         9        10
                           O         O         O         O         O
     Eigenvalues --    -1.03037  -0.76810  -0.62275  -0.50429  -0.49065
   1 1   C  1S         -0.04949  -0.07430   0.08770   0.08837   0.00658
   2        2S          0.10541   0.16954  -0.20345  -0.21378  -0.01552
   3        3S          0.02811   0.04407  -0.05664  -0.05829  -0.00755
   4        4S          0.05994   0.13194  -0.16304  -0.16828   0.00352
   5        5S         -0.02484   0.04572  -0.01385  -0.07321  -0.04716
   6        6PX        -0.06387  -0.05479  -0.09417   0.10694  -0.16187
   7        6PY         0.11940  -0.09815   0.06172  -0.06697  -0.09204
   8        6PZ         0.00000   0.00000   0.00000   0.00000   0.00000
   9        7PX        -0.05230  -0.05755  -0.08741   0.10836  -0.18035
  10        7PY         0.08690  -0.09319   0.06248  -0.06059  -0.09720
  11        7PZ         0.00000   0.00000   0.00000   0.00000   0.00000
  12        8PX        -0.00415  -0.02408   0.02551   0.01893  -0.01875
  13        8PY        -0.05441  -0.01498   0.04514  -0.00875  -0.02357
  14        8PZ         0.00000   0.00000   0.00000   0.00000   0.00000
  15        9PX         0.00939  -0.00503   0.00095  -0.00154   0.01135
  16        9PY        -0.00054  -0.00040  -0.00200   0.00402   0.00916
  17        9PZ         0.00000   0.00000   0.00000   0.00000   0.00000
  18       10D 0       -0.00419  -0.00292   0.00365   0.00239   0.00100
  19       10D+1        0.00000   0.00000   0.00000   0.00000   0.00000
  20       10D-1        0.00000   0.00000   0.00000   0.00000   0.00000
  21       10D+2       -0.01654   0.00101  -0.00117   0.00063  -0.00245
  22       10D-2        0.00083   0.00436   0.00713  -0.00462  -0.00481
  23       11D 0       -0.00520  -0.00754   0.01029   0.00636   0.00307
  24       11D+1        0.00000   0.00000   0.00000   0.00000   0.00000
  25       11D-1        0.00000   0.00000   0.00000   0.00000   0.00000
  26       11D+2        0.00422  -0.00827   0.01227  -0.01445  -0.01373
  27       11D-2        0.00343   0.01033   0.01233  -0.01558   0.00847
  28       12D 0        0.00187  -0.00672   0.00295   0.00784  -0.00662
  29       12D+1        0.00000   0.00000   0.00000   0.00000   0.00000
  30       12D-1        0.00000   0.00000   0.00000   0.00000   0.00000
  31       12D+2        0.00952  -0.00380   0.01393   0.01495  -0.00027
  32       12D-2        0.00830   0.00543   0.00005  -0.00659   0.02046
  33       13F 0        0.00000   0.00000   0.00000   0.00000   0.00000
  34       13F+1        0.00114   0.00083   0.00143  -0.00180   0.00297
  35       13F-1       -0.00225   0.00180  -0.00156   0.00126   0.00235
  36       13F+2        0.00000   0.00000   0.00000   0.00000   0.00000
  37       13F-2        0.00000   0.00000   0.00000   0.00000   0.00000
  38       13F+3        0.00203   0.00235  -0.00037  -0.00499   0.00076
  39       13F-3       -0.00463  -0.00282   0.00485   0.00503   0.00055
  40       14F 0        0.00000   0.00000   0.00000   0.00000   0.00000
  41       14F+1        0.00117  -0.00030  -0.00109   0.00154  -0.00089
  42       14F-1        0.00125  -0.00062  -0.00340   0.00075  -0.00353
  43       14F+2        0.00000   0.00000   0.00000   0.00000   0.00000
  44       14F-2        0.00000   0.00000   0.00000   0.00000   0.00000
  45       14F+3       -0.00743   0.00924   0.00033  -0.00416   0.00874
  46       14F-3        0.00211   0.00097   0.00333  -0.00227   0.00498
  47 2   O  1S         -0.16071   0.04040  -0.02841  -0.09092  -0.03191
  48        2S          0.36738  -0.09826   0.07089   0.22421   0.07775
  49        3S          0.10886  -0.02961   0.02165   0.07082   0.02474
  50        4S          0.24387  -0.10303   0.09304   0.26973   0.08913
  51        5S          0.05067  -0.03122   0.02814   0.09271   0.03108
  52        6PX         0.00647  -0.01910  -0.02523   0.01888  -0.13683
  53        6PY        -0.07532  -0.00562   0.02371   0.20883   0.05800
  54        6PZ         0.00000   0.00000   0.00000   0.00000   0.00000
  55        7PX         0.00783  -0.02229  -0.02820   0.02364  -0.15902
  56        7PY        -0.09287  -0.00068   0.02145   0.23338   0.06458
  57        7PZ         0.00000   0.00000   0.00000   0.00000   0.00000
  58        8PX        -0.00112  -0.01109  -0.01794   0.02523  -0.11638
  59        8PY        -0.02819   0.00520   0.00074   0.13696   0.03039
  60        8PZ         0.00000   0.00000   0.00000   0.00000   0.00000
  61        9PX        -0.00043  -0.00155   0.00160   0.00778  -0.01661
  62        9PY        -0.00488   0.00230  -0.00035   0.00375  -0.00149
  63        9PZ         0.00000   0.00000   0.00000   0.00000   0.00000
  64       10D 0       -0.00274   0.00024   0.00024   0.00405   0.00173
  65       10D+1        0.00000   0.00000   0.00000   0.00000   0.00000
  66       10D-1        0.00000   0.00000   0.00000   0.00000   0.00000
  67       10D+2       -0.00541   0.00000   0.00032   0.00655   0.00074
  68       10D-2       -0.00109   0.00142   0.00149  -0.00010   0.00560
  69       11D 0       -0.00670   0.00058   0.00078   0.00828   0.00382
  70       11D+1        0.00000   0.00000   0.00000   0.00000   0.00000
  71       11D-1        0.00000   0.00000   0.00000   0.00000   0.00000
  72       11D+2       -0.01514   0.00160  -0.00094   0.01430  -0.00087
  73       11D-2       -0.00308   0.00504   0.00421  -0.00291   0.01805
  74       12D 0        0.00312  -0.00042   0.00017   0.00280   0.00108
  75       12D+1        0.00000   0.00000   0.00000   0.00000   0.00000
  76       12D-1        0.00000   0.00000   0.00000   0.00000   0.00000
  77       12D+2        0.00245  -0.00079  -0.00179   0.00685  -0.00475
  78       12D-2        0.00130   0.00088   0.00140  -0.00269   0.01020
  79       13F 0        0.00000   0.00000   0.00000   0.00000   0.00000
  80       13F+1       -0.00006   0.00022   0.00025  -0.00006   0.00067
  81       13F-1        0.00185  -0.00016  -0.00003  -0.00151  -0.00050
  82       13F+2        0.00000   0.00000   0.00000   0.00000   0.00000
  83       13F-2        0.00000   0.00000   0.00000   0.00000   0.00000
  84       13F+3       -0.00056   0.00098   0.00109  -0.00048   0.00350
  85       13F-3        0.00241   0.00005   0.00032  -0.00269   0.00064
  86       14F 0        0.00000   0.00000   0.00000   0.00000   0.00000
  87       14F+1       -0.00054   0.00044   0.00022  -0.00009   0.00117
  88       14F-1        0.00055   0.00031  -0.00087  -0.00108  -0.00066
  89       14F+2        0.00000   0.00000   0.00000   0.00000   0.00000
  90       14F-2        0.00000   0.00000   0.00000   0.00000   0.00000
  91       14F+3       -0.00107   0.00144   0.00049  -0.00004   0.00384
  92       14F-3        0.00241  -0.00066   0.00099  -0.00263   0.00100
  93 3   C  1S         -0.00472  -0.16604  -0.07784  -0.01693   0.02534
  94        2S          0.01028   0.37235   0.17912   0.03910  -0.05701
  95        3S          0.00433   0.09394   0.04578   0.00907  -0.01445
  96        4S         -0.04464   0.09733   0.16412   0.14547  -0.18907
  97        5S          0.01248  -0.03032   0.00569   0.02970   0.00873
  98        6PX        -0.00178   0.02539  -0.06335  -0.01665   0.07554
  99        6PY         0.00769   0.01664  -0.02810  -0.12102   0.10203
 100        6PZ         0.00000   0.00000   0.00000   0.00000   0.00000
 101        7PX        -0.00843   0.02757  -0.06475  -0.01145   0.08471
 102        7PY         0.00920   0.01482  -0.02240  -0.13314   0.11355
 103        7PZ         0.00000   0.00000   0.00000   0.00000   0.00000
 104        8PX        -0.02676  -0.01620   0.01091   0.00152   0.03971
 105        8PY        -0.01771  -0.00262   0.00166  -0.05650   0.05910
 106        8PZ         0.00000   0.00000   0.00000   0.00000   0.00000
 107        9PX         0.00112  -0.00763   0.00242   0.00100  -0.00398
 108        9PY         0.00281  -0.00412   0.00053   0.00635   0.01147
 109        9PZ         0.00000   0.00000   0.00000   0.00000   0.00000
 110       10D 0       -0.00025  -0.00159   0.00175   0.00539  -0.00515
 111       10D+1        0.00000   0.00000   0.00000   0.00000   0.00000
 112       10D-1        0.00000   0.00000   0.00000   0.00000   0.00000
 113       10D+2       -0.00168   0.00056  -0.00203   0.00063   0.00024
 114       10D-2        0.00008   0.00294  -0.00467  -0.00465   0.00731
 115       11D 0       -0.00031  -0.00589   0.00009   0.00881  -0.01251
 116       11D+1        0.00000   0.00000   0.00000   0.00000   0.00000
 117       11D-1        0.00000   0.00000   0.00000   0.00000   0.00000
 118       11D+2        0.00917  -0.00636  -0.00167   0.00653  -0.01181
 119       11D-2       -0.00818   0.01186  -0.00276  -0.01090   0.01900
 120       12D 0        0.00263   0.00299  -0.00088  -0.00741   0.00067
 121       12D+1        0.00000   0.00000   0.00000   0.00000   0.00000
 122       12D-1        0.00000   0.00000   0.00000   0.00000   0.00000
 123       12D+2       -0.00124  -0.00268   0.00079  -0.00078  -0.01398
 124       12D-2       -0.00631   0.00192   0.00498  -0.00409   0.00906
 125       13F 0        0.00000   0.00000   0.00000   0.00000   0.00000
 126       13F+1        0.00057  -0.00136   0.00081   0.00046  -0.00202
 127       13F-1        0.00018  -0.00433  -0.00156   0.00070  -0.00092
 128       13F+2        0.00000   0.00000   0.00000   0.00000   0.00000
 129       13F-2        0.00000   0.00000   0.00000   0.00000   0.00000
 130       13F+3        0.00002  -0.00281  -0.00211   0.00218  -0.00244
 131       13F-3       -0.00117   0.00416  -0.00050   0.00102   0.00024
 132       14F 0        0.00000   0.00000   0.00000   0.00000   0.00000
 133       14F+1        0.00396  -0.00368  -0.00077   0.00612  -0.00880
 134       14F-1        0.00391   0.00209  -0.00060  -0.00515   0.00771
 135       14F+2        0.00000   0.00000   0.00000   0.00000   0.00000
 136       14F-2        0.00000   0.00000   0.00000   0.00000   0.00000
 137       14F+3        0.00281  -0.00300   0.00109  -0.00086  -0.00186
 138       14F-3        0.00515  -0.00255   0.00246   0.00055  -0.00510
 139 4   H  1S         -0.00026   0.06795   0.04577   0.05487  -0.04926
 140        2S          0.00806   0.07765   0.05101   0.05547  -0.03967
 141        3S         -0.00623   0.00792   0.01153   0.00589  -0.00550
 142        4S          0.00026   0.00038  -0.00010   0.00322   0.00750
 143        5PX        -0.00011  -0.00004  -0.00210  -0.00062   0.00221
 144        5PY        -0.00011   0.00470   0.00191   0.00145  -0.00093
 145        5PZ        -0.00001  -0.00578  -0.00371  -0.00498   0.00421
 146        6PX        -0.00296   0.00414  -0.00261  -0.00358   0.00909
 147        6PY         0.00133   0.00475   0.00213  -0.00717   0.00777
 148        6PZ        -0.00217  -0.00038  -0.00357  -0.00332   0.00332
 149        7PX        -0.00048   0.00237   0.00228  -0.00046   0.00439
 150        7PY        -0.00117  -0.00326   0.00028  -0.00340   0.00337
 151        7PZ         0.00044   0.00402   0.00009   0.00912  -0.00247
 152        8D 0        0.00022   0.00019   0.00083   0.00145  -0.00155
 153        8D+1        0.00027  -0.00041   0.00089   0.00046  -0.00119
 154        8D-1       -0.00002  -0.00170  -0.00078  -0.00041   0.00017
 155        8D+2       -0.00010  -0.00080  -0.00023   0.00049  -0.00047
 156        8D-2       -0.00017   0.00060  -0.00062  -0.00054   0.00112
 157        9D 0        0.00029  -0.00299  -0.00062   0.00061  -0.00204
 158        9D+1       -0.00015  -0.00096  -0.00074   0.00056  -0.00047
 159        9D-1       -0.00086   0.00354  -0.00039   0.00153  -0.00070
 160        9D+2        0.00089   0.00018   0.00102   0.00164  -0.00036
 161        9D-2       -0.00190   0.00121   0.00060  -0.00122   0.00133
 162 5   H  1S          0.00328   0.06379   0.06440  -0.01074  -0.03068
 163        2S         -0.01287   0.08206   0.07082  -0.03152  -0.00177
 164        3S         -0.01033  -0.00005   0.02641  -0.02708   0.04119
 165        4S          0.00258  -0.00510   0.00273  -0.00398  -0.00890
 166        5PX         0.00083   0.00637   0.00581  -0.00262  -0.00105
 167        5PY         0.00023  -0.00259  -0.00328  -0.00214   0.00363
 168        5PZ         0.00000   0.00000   0.00000   0.00000   0.00000
 169        6PX        -0.00462   0.00860   0.00101  -0.00416   0.01130
 170        6PY         0.00226   0.00151  -0.00236  -0.00535   0.00745
 171        6PZ         0.00000   0.00000   0.00000   0.00000   0.00000
 172        7PX        -0.00300  -0.00707   0.00078  -0.00349   0.01120
 173        7PY        -0.00092   0.00258   0.00054  -0.00105  -0.00811
 174        7PZ         0.00000   0.00000   0.00000   0.00000   0.00000
 175        8D 0       -0.00007  -0.00113  -0.00063   0.00013  -0.00011
 176        8D+1        0.00000   0.00000   0.00000   0.00000   0.00000
 177        8D-1        0.00000   0.00000   0.00000   0.00000   0.00000
 178        8D+2        0.00013   0.00154   0.00075  -0.00148   0.00130
 179        8D-2        0.00033  -0.00047  -0.00104  -0.00120   0.00179
 180        9D 0        0.00021   0.00165   0.00048   0.00023  -0.00209
 181        9D+1        0.00000   0.00000   0.00000   0.00000   0.00000
 182        9D-1        0.00000   0.00000   0.00000   0.00000   0.00000
 183        9D+2       -0.00183  -0.00041  -0.00133   0.00228   0.00080
 184        9D-2        0.00056   0.00269   0.00256  -0.00131   0.00139
 185 6   H  1S         -0.00026   0.06795   0.04577   0.05487  -0.04926
 186        2S          0.00806   0.07765   0.05101   0.05547  -0.03967
 187        3S         -0.00623   0.00792   0.01153   0.00589  -0.00550
 188        4S          0.00026   0.00038  -0.00010   0.00322   0.00750
 189        5PX        -0.00011  -0.00004  -0.00210  -0.00062   0.00221
 190        5PY        -0.00011   0.00470   0.00191   0.00145  -0.00093
 191        5PZ         0.00001   0.00578   0.00371   0.00498  -0.00421
 192        6PX        -0.00296   0.00414  -0.00261  -0.00358   0.00909
 193        6PY         0.00133   0.00475   0.00213  -0.00717   0.00777
 194        6PZ         0.00217   0.00038   0.00357   0.00332  -0.00332
 195        7PX        -0.00048   0.00237   0.00228  -0.00046   0.00439
 196        7PY        -0.00117  -0.00326   0.00028  -0.00340   0.00337
 197        7PZ        -0.00044  -0.00402  -0.00009  -0.00912   0.00247
 198        8D 0        0.00022   0.00019   0.00083   0.00145  -0.00155
 199        8D+1       -0.00027   0.00041  -0.00089  -0.00046   0.00119
 200        8D-1        0.00002   0.00170   0.00078   0.00041  -0.00017
 201        8D+2       -0.00010  -0.00080  -0.00023   0.00049  -0.00047
 202        8D-2       -0.00017   0.00060  -0.00062  -0.00054   0.00112
 203        9D 0        0.00029  -0.00299  -0.00062   0.00061  -0.00204
 204        9D+1        0.00015   0.00096   0.00074  -0.00056   0.00047
 205        9D-1        0.00086  -0.00354   0.00039  -0.00153   0.00070
 206        9D+2        0.00089   0.00018   0.00102   0.00164  -0.00036
 207        9D-2       -0.00190   0.00121   0.00060  -0.00122   0.00133
 208 7   O  1S          0.12802   0.02715  -0.02383  -0.02609  -0.05210
 209        2S         -0.29484  -0.06504   0.05573   0.06574   0.12799
 210        3S         -0.08708  -0.02107   0.02056   0.01866   0.04047
 211        4S         -0.21041  -0.02700   0.01824   0.13156   0.22315
 212        5S         -0.02657  -0.00085   0.00532   0.05734   0.11379
 213        6PX         0.00340  -0.07068   0.23954  -0.08308   0.07280
 214        6PY        -0.02868  -0.03516   0.04235  -0.08944  -0.19348
 215        6PZ         0.00000   0.00000   0.00000   0.00000   0.00000
 216        7PX         0.01283  -0.07804   0.27398  -0.09828   0.08692
 217        7PY        -0.03816  -0.03916   0.04337  -0.09700  -0.22147
 218        7PZ         0.00000   0.00000   0.00000   0.00000   0.00000
 219        8PX         0.01985  -0.02596   0.11644  -0.04104   0.06306
 220        8PY        -0.00891  -0.01660  -0.00269  -0.03520  -0.12300
 221        8PZ         0.00000   0.00000   0.00000   0.00000   0.00000
 222        9PX        -0.00201  -0.00086   0.00305  -0.00376  -0.01285
 223        9PY        -0.00431  -0.00293   0.00062  -0.00511  -0.01098
 224        9PZ         0.00000   0.00000   0.00000   0.00000   0.00000
 225       10D 0        0.00205   0.00032   0.00033   0.00091   0.00321
 226       10D+1        0.00000   0.00000   0.00000   0.00000   0.00000
 227       10D-1        0.00000   0.00000   0.00000   0.00000   0.00000
 228       10D+2       -0.00082   0.00206  -0.00401   0.00191   0.00241
 229       10D-2       -0.00095  -0.00215   0.00833  -0.00241   0.00325
 230       11D 0        0.00784  -0.00152   0.00506  -0.00168   0.00430
 231       11D+1        0.00000   0.00000   0.00000   0.00000   0.00000
 232       11D-1        0.00000   0.00000   0.00000   0.00000   0.00000
 233       11D+2       -0.00814   0.00864  -0.01454   0.00902   0.01222
 234       11D-2        0.00288   0.00149   0.01802  -0.00435   0.01918
 235       12D 0        0.00148  -0.00360   0.00634  -0.00557  -0.00734
 236       12D+1        0.00000   0.00000   0.00000   0.00000   0.00000
 237       12D-1        0.00000   0.00000   0.00000   0.00000   0.00000
 238       12D+2       -0.00809   0.00583  -0.00536  -0.00297   0.00791
 239       12D-2        0.00197   0.00895  -0.00096   0.00791   0.02123
 240       13F 0        0.00000   0.00000   0.00000   0.00000   0.00000
 241       13F+1       -0.00079   0.00089  -0.00297   0.00119  -0.00107
 242       13F-1        0.00066   0.00041   0.00002   0.00029   0.00175
 243       13F+2        0.00000   0.00000   0.00000   0.00000   0.00000
 244       13F-2        0.00000   0.00000   0.00000   0.00000   0.00000
 245       13F+3        0.00124  -0.00126   0.00158  -0.00069  -0.00073
 246       13F-3       -0.00147  -0.00038  -0.00072   0.00029  -0.00182
 247       14F 0        0.00000   0.00000   0.00000   0.00000   0.00000
 248       14F+1       -0.00073  -0.00027  -0.00129   0.00007  -0.00203
 249       14F-1        0.00026  -0.00009   0.00096  -0.00009   0.00014
 250       14F+2        0.00000   0.00000   0.00000   0.00000   0.00000
 251       14F-2        0.00000   0.00000   0.00000   0.00000   0.00000
 252       14F+3        0.00011  -0.00206  -0.00019  -0.00017  -0.00607
 253       14F-3       -0.00440   0.00128  -0.00705   0.00309  -0.00033
 254 8   H  1S         -0.05570  -0.04971   0.12177  -0.05985  -0.03133
 255        2S         -0.04609  -0.07935   0.18316  -0.11802  -0.10394
 256        3S         -0.00034  -0.00994   0.01094  -0.04377  -0.07382
 257        4S         -0.00125   0.00130  -0.00216   0.00241  -0.00236
 258        5PX         0.00602   0.00405  -0.00533   0.00348   0.00651
 259        5PY         0.00603   0.00544  -0.01268   0.00440  -0.00166
 260        5PZ         0.00000   0.00000   0.00000   0.00000   0.00000
 261        6PX         0.00872   0.00702  -0.00235   0.00615   0.02577
 262        6PY         0.00206   0.01309  -0.02952   0.01642   0.00537
 263        6PZ         0.00000   0.00000   0.00000   0.00000   0.00000
 264        7PX         0.00425  -0.00137   0.01582  -0.00130   0.02190
 265        7PY        -0.00360   0.00016  -0.00071   0.00541   0.00008
 266        7PZ         0.00000   0.00000   0.00000   0.00000   0.00000
 267        8D 0        0.00115   0.00121  -0.00285   0.00137   0.00051
 268        8D+1        0.00000   0.00000   0.00000   0.00000   0.00000
 269        8D-1        0.00000   0.00000   0.00000   0.00000   0.00000
 270        8D+2       -0.00090   0.00125  -0.00383   0.00125  -0.00177
 271        8D-2       -0.00223  -0.00225   0.00441  -0.00233  -0.00168
 272        9D 0        0.00008   0.00008   0.00134  -0.00239   0.00047
 273        9D+1        0.00000   0.00000   0.00000   0.00000   0.00000
 274        9D-1        0.00000   0.00000   0.00000   0.00000   0.00000
 275        9D+2       -0.00312   0.00149  -0.00656   0.00247  -0.00430
 276        9D-2       -0.00037   0.00053  -0.00106  -0.00125  -0.00013
                          11        12        13        14        15
                           O         O         O         O         O
     Eigenvalues --    -0.48079  -0.42004  -0.40867  -0.40211  -0.33837
   1 1   C  1S          0.00000   0.01712  -0.01768   0.00000   0.00000
   2        2S          0.00000  -0.04234   0.04387   0.00000   0.00000
   3        3S          0.00000  -0.01157   0.00901   0.00000   0.00000
   4        4S          0.00000  -0.02910   0.09079   0.00000   0.00000
   5        5S          0.00000  -0.00883   0.10291   0.00000   0.00000
   6        6PX         0.00000   0.04954  -0.02686   0.00000   0.00000
   7        6PY         0.00000  -0.03629  -0.16585   0.00000   0.00000
   8        6PZ         0.17875   0.00000   0.00000  -0.08347  -0.07337
   9        7PX         0.00000   0.04601  -0.02620   0.00000   0.00000
  10        7PY         0.00000  -0.02282  -0.16901   0.00000   0.00000
  11        7PZ         0.21414   0.00000   0.00000  -0.09858  -0.08429
  12        8PX         0.00000   0.02479  -0.03615   0.00000   0.00000
  13        8PY         0.00000  -0.01720  -0.01672   0.00000   0.00000
  14        8PZ         0.05790   0.00000   0.00000  -0.04445  -0.03900
  15        9PX         0.00000  -0.00069  -0.01207   0.00000   0.00000
  16        9PY         0.00000  -0.00115  -0.02130   0.00000   0.00000
  17        9PZ         0.00301   0.00000   0.00000   0.00107  -0.00367
  18       10D 0        0.00000  -0.00012   0.00187   0.00000   0.00000
  19       10D+1        0.00264   0.00000   0.00000  -0.01002   0.01215
  20       10D-1        0.00225   0.00000   0.00000  -0.00868  -0.02049
  21       10D+2        0.00000   0.01403   0.01312   0.00000   0.00000
  22       10D-2        0.00000  -0.00394   0.01276   0.00000   0.00000
  23       11D 0        0.00000  -0.00142  -0.00195   0.00000   0.00000
  24       11D+1        0.00351   0.00000   0.00000  -0.02121   0.02677
  25       11D-1       -0.00229   0.00000   0.00000  -0.01441  -0.03543
  26       11D+2        0.00000   0.00959   0.00782   0.00000   0.00000
  27       11D-2        0.00000  -0.00812   0.02389   0.00000   0.00000
  28       12D 0        0.00000   0.00272  -0.01153   0.00000   0.00000
  29       12D+1       -0.00058   0.00000   0.00000  -0.00045  -0.00080
  30       12D-1        0.00166   0.00000   0.00000  -0.00223  -0.00058
  31       12D+2        0.00000  -0.00708  -0.00182   0.00000   0.00000
  32       12D-2        0.00000  -0.00675   0.01153   0.00000   0.00000
  33       13F 0       -0.00680   0.00000   0.00000   0.00263   0.00073
  34       13F+1        0.00000  -0.00064   0.00057   0.00000   0.00000
  35       13F-1        0.00000   0.00036   0.00290   0.00000   0.00000
  36       13F+2       -0.00132   0.00000   0.00000  -0.00012   0.00650
  37       13F-2       -0.00043   0.00000   0.00000   0.00429  -0.00160
  38       13F+3        0.00000  -0.00457   0.00456   0.00000   0.00000
  39       13F-3        0.00000  -0.00183   0.00428   0.00000   0.00000
  40       14F 0        0.00061   0.00000   0.00000   0.00272  -0.00076
  41       14F+1        0.00000  -0.00231  -0.00033   0.00000   0.00000
  42       14F-1        0.00000   0.00280  -0.00475   0.00000   0.00000
  43       14F+2       -0.00160   0.00000   0.00000   0.00273   0.00789
  44       14F-2       -0.00435   0.00000   0.00000   0.00653  -0.00605
  45       14F+3        0.00000   0.00739   0.01879   0.00000   0.00000
  46       14F-3        0.00000   0.00100  -0.00230   0.00000   0.00000
  47 2   O  1S          0.00000  -0.01379  -0.02714   0.00000   0.00000
  48        2S          0.00000   0.03274   0.06321   0.00000   0.00000
  49        3S          0.00000   0.01052   0.02027   0.00000   0.00000
  50        4S          0.00000   0.04934   0.08253   0.00000   0.00000
  51        5S          0.00000   0.01748   0.01346   0.00000   0.00000
  52        6PX         0.00000  -0.01816  -0.03513   0.00000   0.00000
  53        6PY         0.00000   0.08776   0.18557   0.00000   0.00000
  54        6PZ         0.13654   0.00000   0.00000  -0.11130  -0.25597
  55        7PX         0.00000  -0.02109  -0.03879   0.00000   0.00000
  56        7PY         0.00000   0.10191   0.21385   0.00000   0.00000
[...]
     3  C    0.029506  -0.047611   5.268532   0.404158   0.398842   0.404158
     4  H    0.001068  -0.006369   0.404158   0.386009  -0.003008   0.000642
     5  H   -0.022937   0.004977   0.398842  -0.003008   0.385958  -0.003008
     6  H    0.001068  -0.006369   0.404158   0.000642  -0.003008   0.386009
     7  O    0.185748  -0.069488  -0.050405  -0.004270  -0.002337  -0.004270
     8  H    0.070542  -0.020755   0.000721  -0.001595   0.001084  -0.001595
              7          8
     1  C    0.185748   0.070542
     2  O   -0.069488  -0.020755
     3  C   -0.050405   0.000721
     4  H   -0.004270  -0.001595
     5  H   -0.002337   0.001084
     6  H   -0.004270  -0.001595
     7  O    8.102202   0.156676
     8  H    0.156676   0.613510
 Mulliken atomic charges:
              1
     1  C    0.434889
     2  O   -0.581707
     3  C   -0.407900
     4  H    0.223366
     5  H    0.240430
     6  H    0.223366
     7  O   -0.313855
     8  H    0.181411
 Sum of Mulliken atomic charges =   0.00000
 Mulliken charges with hydrogens summed into heavy atoms:
              1
     1  C    0.434889
     2  O   -0.581707
     3  C    0.279262
     7  O   -0.132445
 Sum of Mulliken charges with hydrogens summed into heavy atoms =   0.00000
 Electronic spatial extent (au):  <R**2>=            253.9336
 Charge=              0.0000 electrons
 Dipole moment (field-independent basis, Debye):
    X=              0.3194    Y=             -1.9728    Z=              0.0000  Tot=              1.9985
 Quadrupole moment (field-independent basis, Debye-Ang):
   XX=            -20.1624   YY=            -27.8753   ZZ=            -23.3229
   XY=              3.9064   XZ=              0.0000   YZ=              0.0000
 Traceless Quadrupole moment (field-independent basis, Debye-Ang):
   XX=              3.6244   YY=             -4.0884   ZZ=              0.4640
   XY=              3.9064   XZ=              0.0000   YZ=              0.0000
 Octapole moment (field-independent basis, Debye-Ang**2):
  XXX=             11.0179  YYY=             -5.5495  ZZZ=              0.0000  XYY=              1.1798
  XXY=              4.5168  XXZ=              0.0000  XZZ=              0.9724  YZZ=             -0.2498
  YYZ=              0.0000  XYZ=              0.0000
 Hexadecapole moment (field-independent basis, Debye-Ang**3):
 XXXX=           -122.0008 YYYY=           -147.7016 ZZZZ=            -28.3509 XXXY=             -4.3721
 XXXZ=              0.0000 YYYX=             -9.2541 YYYZ=              0.0000 ZZZX=              0.0000
 ZZZY=              0.0000 XXYY=            -49.5005 XXZZ=            -30.5275 YYZZ=            -26.1168
 XXYZ=              0.0000 YYXZ=              0.0000 ZZXY=             -2.7902
 N-N= 1.211754184242D+02 E-N=-7.799639546698D+02  KE= 2.277993392966D+02
 Symmetry A'   KE= 2.174172887772D+02
 Symmetry A"   KE= 1.038205051937D+01
 Orbital energies and kinetic energies (alpha):
                                 1                 2
   1         O               -19.185993         29.021731
   2         O               -19.130108         29.021683
   3         O               -10.319792         15.921640
   4         O               -10.189951         15.916433
   5         O                -1.119237          2.544408
   6         O                -1.030367          2.894468
   7         O                -0.768097          1.508351
   8         O                -0.622747          1.906915
   9         O                -0.504292          2.203545
  10         O                -0.490648          1.902974
  11         O                -0.480786          1.380875
  12         O                -0.420043          1.223526
  13         O                -0.408670          2.226273
  14         O                -0.402107          1.448917
  15         O                -0.338372          2.361233
  16         O                -0.294017          2.416698
  17         V                -0.015224          0.301364
  18         V                -0.011446          1.805871
  19         V                 0.006603          0.247260
  20         V                 0.023995          0.309503
  21         V                 0.024047          0.133499
  22         V                 0.044251          0.195316
  23         V                 0.057490          0.208412
  24         V                 0.064439          0.172652
  25         V                 0.068419          0.417794
  26         V                 0.082291          0.261579
  27         V                 0.083448          0.204468
  28         V                 0.085423          0.326676
  29         V                 0.109845          0.405010
  30         V                 0.114479          0.394946
  31         V                 0.116422          0.450525
  32         V                 0.124194          0.417494
  33         V                 0.146993          0.319955
  34         V                 0.151431          0.391913
  35         V                 0.170961          0.687884
  36         V                 0.182660          0.284485
  37         V                 0.188971          0.500016
  38         V                 0.195808          0.564208
  39         V                 0.204577          0.427213
  40         V                 0.209808          0.833901
  41         V                 0.230012          0.999552
  42         V                 0.237491          0.681450
  43         V                 0.255803          0.484147
  44         V                 0.265795          0.627955
  45         V                 0.274044          0.471936
  46         V                 0.283174          0.595454
  47         V                 0.284430          0.724312
  48         V                 0.303669          1.131053
  49         V                 0.308766          0.477992
  50         V                 0.317164          0.655734
  51         V                 0.318289          0.601337
  52         V                 0.319665          0.828540
  53         V                 0.340828          0.832242
  54         V                 0.345462          0.550950
  55         V                 0.358612          0.627236
  56         V                 0.362036          1.263833
  57         V                 0.368992          1.505035
  58         V                 0.378964          1.074491
  59         V                 0.405863          0.628219
  60         V                 0.412158          0.781390
  61         V                 0.428079          0.907204
  62         V                 0.428104          0.942180
  63         V                 0.437586          0.631057
  64         V                 0.463859          0.966547
  65         V                 0.507909          0.978552
  66         V                 0.521793          1.612333
  67         V                 0.527533          0.882108
  68         V                 0.558710          1.312759
  69         V                 0.575231          1.079429
  70         V                 0.580811          0.910112
  71         V                 0.610468          1.403661
  72         V                 0.621848          1.130132
  73         V                 0.651320          1.039338
  74         V                 0.663994          1.315210
  75         V                 0.668908          0.973685
  76         V                 0.670016          1.242831
  77         V                 0.689704          1.239244
  78         V                 0.699163          1.185625
  79         V                 0.724591          1.156743
  80         V                 0.733116          1.407602
  81         V                 0.742919          1.374502
  82         V                 0.743779          1.160779
  83         V                 0.763685          1.266450
  84         V                 0.767242          1.015032
  85         V                 0.782019          1.144082
  86         V                 0.790018          1.400415
  87         V                 0.809628          1.504508
  88         V                 0.829795          1.185338
  89         V                 0.831519          1.364075
  90         V                 0.853374          1.287093
  91         V                 0.856388          1.359619
  92         V                 0.865016          1.345661
  93         V                 0.872721          1.608059
  94         V                 0.883407          1.419985
  95         V                 0.896725          1.372357
  96         V                 0.907732          1.568040
  97         V                 0.947520          1.412747
  98         V                 0.960135          1.543592
  99         V                 0.983911          1.262675
 100         V                 0.990001          1.376099
 101         V                 1.007132          1.321510
 102         V                 1.037710          1.497265
 103         V                 1.045244          1.598693
 104         V                 1.053592          1.382603
 105         V                 1.065160          1.291226
 106         V                 1.065958          1.450006
 107         V                 1.076620          1.582449
 108         V                 1.111780          1.447898
 109         V                 1.142164          1.872826
 110         V                 1.145622          1.718679
 111         V                 1.149830          1.421430
 112         V                 1.185789          1.648663
 113         V                 1.235564          1.722407
 114         V                 1.253304          1.739658
 115         V                 1.268803          1.783961
 116         V                 1.273918          1.909179
 117         V                 1.283889          1.717432
 118         V                 1.309133          1.895527
 119         V                 1.327514          1.918261
 120         V                 1.339846          1.772585
 121         V                 1.366279          2.013137
 122         V                 1.385644          2.163737
 123         V                 1.418153          1.992289
 124         V                 1.442588          2.042820
 125         V                 1.455230          2.064781
 126         V                 1.459567          2.242909
 127         V                 1.463869          1.887253
 128         V                 1.478032          2.377543
 129         V                 1.500649          2.016111
 130         V                 1.547163          2.091064
 131         V                 1.560734          2.362012
 132         V                 1.571841          2.350965
 133         V                 1.586172          2.171514
 134         V                 1.606865          2.444148
 135         V                 1.619011          2.412825
 136         V                 1.672213          2.566322
 137         V                 1.684577          2.497674
 138         V                 1.708178          2.558606
 139         V                 1.729670          2.551552
 140         V                 1.817280          2.876542
 141         V                 1.849040          2.427231
 142         V                 1.868713          2.423648
 143         V                 1.903260          2.441050
 144         V                 1.917620          2.876721
 145         V                 1.961469          2.549758
 146         V                 1.980490          2.843355
 147         V                 1.986445          2.539329
 148         V                 2.024857          2.693917
 149         V                 2.028122          2.701705
 150         V                 2.065586          2.710641
 151         V                 2.083308          2.950676
 152         V                 2.141832          3.099880
 153         V                 2.166205          3.008008
 154         V                 2.176203          3.256951
 155         V                 2.185295          3.080959
 156         V                 2.242088          3.232492
 157         V                 2.283244          2.951000
 158         V                 2.307143          3.103767
 159         V                 2.320468          3.134278
 160         V                 2.337397          2.956627
 161         V                 2.404573          3.539980
 162         V                 2.444450          3.992311
 163         V                 2.457043          3.357771
 164         V                 2.478684          3.588441
 165         V                 2.502175          3.210229
 166         V                 2.538440          3.519128
 167         V                 2.564113          3.576674
 168         V                 2.619864          3.793614
 169         V                 2.639016          3.476596
 170         V                 2.689603          3.509147
 171         V                 2.697505          3.835136
 172         V                 2.709203          3.521217
 173         V                 2.737357          3.927283
 174         V                 2.838565          4.284814
 175         V                 2.879285          4.516433
 176         V                 2.925209          4.248912
 177         V                 2.943129          4.636411
 178         V                 3.046573          4.252483
 179         V                 3.055246          4.723475
 180         V                 3.083895          4.948743
 181         V                 3.131524          4.664193
 182         V                 3.208716          4.730425
 183         V                 3.246109          4.230297
 184         V                 3.274788          4.641305
 185         V                 3.285698          4.268016
 186         V                 3.289678          4.649062
 187         V                 3.336400          4.466828
 188         V                 3.369652          5.079864
 189         V                 3.441619          5.133653
 190         V                 3.487495          5.052138
 191         V                 3.495516          5.122878
 192         V                 3.544226          5.061899
 193         V                 3.581385          5.008850
 194         V                 3.594969          5.136190
 195         V                 3.616102          5.119269
 196         V                 3.641630          5.689632
 197         V                 3.650851          5.157197
 198         V                 3.669522          5.350622
 199         V                 3.705562          5.329100
 200         V                 3.727380          5.336613
 201         V                 3.786488          4.925433
 202         V                 3.811467          4.936234
 203         V                 3.831868          4.957305
 204         V                 3.928380          6.072779
 205         V                 3.943150          5.089455
 206         V                 3.971581          5.722030
 207         V                 3.984855          5.229888
 208         V                 4.006907          6.004213
 209         V                 4.037706          5.637137
 210         V                 4.127360          5.046464
 211         V                 4.145564          5.412463
 212         V                 4.167776          5.894377
 213         V                 4.208436          5.856144
 214         V                 4.277069          5.995232
 215         V                 4.288729          6.170212
 216         V                 4.300093          6.073424
 217         V                 4.361607          5.614467
 218         V                 4.373487          6.873647
 219         V                 4.435886          5.887644
 220         V                 4.449448          5.814965
 221         V                 4.490760          6.735088
 222         V                 4.556801          6.361302
 223         V                 4.630023          6.531635
 224         V                 4.660222          6.977665
 225         V                 4.680390          5.962568
 226         V                 4.717968          6.631411
 227         V                 4.800528          5.731479
 228         V                 4.804837          6.007766
 229         V                 4.868172          6.988329
 230         V                 4.939648          6.690906
 231         V                 4.986647          6.083094
 232         V                 5.009903          6.452098
 233         V                 5.068382          6.371808
 234         V                 5.107517          7.581625
 235         V                 5.162663          6.728171
 236         V                 5.248439          7.990806
 237         V                 5.258251          6.240672
 238         V                 5.336555          6.347073
 239         V                 5.368562          7.135677
 240         V                 5.496733          7.585827
 241         V                 5.638457          7.303382
 242         V                 5.649267          8.192371
 243         V                 5.742089          7.087802
 244         V                 5.802417          7.430919
 245         V                 5.883534          8.860805
 246         V                 6.104765          8.459321
 247         V                 6.168179          7.546710
 248         V                 6.231453          7.642668
 249         V                 6.286244          7.650256
 250         V                 6.321783          7.700657
 251         V                 6.354770          7.864231
 252         V                 6.372256          7.870187
 253         V                 6.402427          7.935206
 254         V                 6.498679          8.263242
 255         V                 6.557118          8.089872
 256         V                 6.731166          8.428750
 257         V                 6.756616          9.138104
 258         V                 6.794238          9.454204
 259         V                 6.806629          9.110718
 260         V                 6.818471          8.915880
 261         V                 6.823825          9.240231
 262         V                 6.848466          9.797561
 263         V                 6.984909          9.849416
 264         V                 7.014907         10.189754
 265         V                 7.064420         10.086910
 266         V                 7.113756         10.182394
 267         V                 7.195181          9.944653
 268         V                 7.308713         10.585088
 269         V                 7.374150         10.388816
 270         V                 7.482695         10.257534
 271         V                 7.702209         10.375068
 272         V                 7.991070         11.454124
 273         V                14.438357         39.566267
 274         V                14.898166         38.987897
 275         V                16.244044         40.339069
 276         V                17.958520         44.748296
 Total kinetic energy from orbitals= 2.277993392966D+02
 1\1\GINC-CND29\SP\RB3LYP TD-FC\Aug-CC-pVTZ\C2H4O2\POBMABEJ\18-Jan-2012
 \0\\#b3lyp TD=(singlets,nstates=3)/aug-cc-pVTZ SCRF=(IEFPCM,solvent=cy
 clohexane) SCF(maxCyc=200,conver=8) 5D 7F gfinput pop=full guess=read 
 geom=checkpoint\\Zn12S12 K testing with B3LYP/SBKJ(d) and 6-311+G*\\0,
 1\C,0,1.2532633373,-0.5917392687,0.\O,0,0.201289349,-0.0016928969,0.\C
 ,0,2.6159959648,0.0355027435,0.\H,0,3.1729937252,-0.2916663505,-0.8778
 514995\H,0,2.5232756508,1.116388766,0.\H,0,3.1729937252,-0.2916663505,
 0.8778514995\O,0,1.3243058086,-1.9444762712,0.\H,0,0.4161234387,-2.283
 3853713,0.\\Version=IA64L-G09RevB.01\State=1-A'\HF=-229.1887724\RMSD=1
 .033e-09\PG=CS [SG(C2H2O2),X(H2)]\\@


 ROSE IS A RED
 TY COBB IS BLUE
 'CAUSE PETE JUST HIT
 NO. 4592.
 Job cpu time:  0 days  0 hours 49 minutes  3.0 seconds.
 File lengths (MBytes):  RWF=     90 Int=      0 D2E=      0 Chk=     11 Scr=      1
 Normal termination of Gaussian 09 at Wed Jan 18 20:09:37 2012.
