 Entering Gaussian System, Link 0=g09
 Input=azetona-b3lyp-acct-etanol-tddft.com
 Output=azetona-b3lyp-acct-etanol-tddft.log
 Initial command:
 /usr/local//g09l/l1.exe /scratch/pobmabej/GAUSS_25579.arina/Gau-18547.inp -scrdir=/scratch/pobmabej/GAUSS_25579.arina/
 Entering Link 1 = /usr/local//g09l/l1.exe PID=     18548.
  
 Copyright (c) 1988,1990,1992,1993,1995,1998,2003,2009,2010,
            Gaussian, Inc.  All Rights Reserved.
  
 This is part of the Gaussian(R) 09 program.  It is based on
 the Gaussian(R) 03 system (copyright 2003, Gaussian, Inc.),
 the Gaussian(R) 98 system (copyright 1998, Gaussian, Inc.),
 the Gaussian(R) 94 system (copyright 1995, Gaussian, Inc.),
 the Gaussian 92(TM) system (copyright 1992, Gaussian, Inc.),
 the Gaussian 90(TM) system (copyright 1990, Gaussian, Inc.),
 the Gaussian 88(TM) system (copyright 1988, Gaussian, Inc.),
 the Gaussian 86(TM) system (copyright 1986, Carnegie Mellon
 University), and the Gaussian 82(TM) system (copyright 1983,
 Carnegie Mellon University). Gaussian is a federally registered
 trademark of Gaussian, Inc.
  
 This software contains proprietary and confidential information,
 including trade secrets, belonging to Gaussian, Inc.
  
 This software is provided under written license and may be
 used, copied, transmitted, or stored only in accord with that
 written license.
  
 The following legend is applicable only to US Government
 contracts under FAR:
  
                    RESTRICTED RIGHTS LEGEND
  
 Use, reproduction and disclosure by the US Government is
 subject to restrictions as set forth in subparagraphs (a)
 and (c) of the Commercial Computer Software - Restricted
 Rights clause in FAR 52.227-19.
  
 Gaussian, Inc.
 340 Quinnipiac St., Bldg. 40, Wallingford CT 06492
  
  
 ---------------------------------------------------------------
 Warning -- This program may not be used in any manner that
 competes with the business of Gaussian, Inc. or will provide
 assistance to any competitor of Gaussian, Inc.  The licensee
 of this program is prohibited from giving any competitor of
 Gaussian, Inc. access to this program.  By using this program,
 the user acknowledges that Gaussian, Inc. is engaged in the
 business of creating and licensing software in the field of
 computational chemistry and represents and warrants to the
 licensee that it is not a competitor of Gaussian, Inc. and that
 it will not use this program in any manner prohibited above.
 ---------------------------------------------------------------
  

 Cite this work as:
 Gaussian 09, Revision B.01,
 M. J. Frisch, G. W. Trucks, H. B. Schlegel, G. E. Scuseria, 
 M. A. Robb, J. R. Cheeseman, G. Scalmani, V. Barone, B. Mennucci, 
 G. A. Petersson, H. Nakatsuji, M. Caricato, X. Li, H. P. Hratchian, 
 A. F. Izmaylov, J. Bloino, G. Zheng, J. L. Sonnenberg, M. Hada, 
 M. Ehara, K. Toyota, R. Fukuda, J. Hasegawa, M. Ishida, T. Nakajima, 
 Y. Honda, O. Kitao, H. Nakai, T. Vreven, J. A. Montgomery, Jr., 
 J. E. Peralta, F. Ogliaro, M. Bearpark, J. J. Heyd, E. Brothers, 
 K. N. Kudin, V. N. Staroverov, T. Keith, R. Kobayashi, J. Normand, 
 K. Raghavachari, A. Rendell, J. C. Burant, S. S. Iyengar, J. Tomasi, 
 M. Cossi, N. Rega, J. M. Millam, M. Klene, J. E. Knox, J. B. Cross, 
 V. Bakken, C. Adamo, J. Jaramillo, R. Gomperts, R. E. Stratmann, 
 O. Yazyev, A. J. Austin, R. Cammi, C. Pomelli, J. W. Ochterski, 
 R. L. Martin, K. Morokuma, V. G. Zakrzewski, G. A. Voth, 
 P. Salvador, J. J. Dannenberg, S. Dapprich, A. D. Daniels, 
 O. Farkas, J. B. Foresman, J. V. Ortiz, J. Cioslowski, 
 and D. J. Fox, Gaussian, Inc., Wallingford CT, 2010.
 
 ******************************************
 Gaussian 09:  IA64L-G09RevB.01 12-Aug-2010
                18-Jan-2012 
 ******************************************
 %mem=7520mb
 %nprocshared=8
 Will use up to    8 processors via shared memory.
 %Chk=azetona-b3lyp-acct-etanol
 ----------------------------------------------------------------------
 #b3lyp TD=(singlets,nstates=3)/aug-cc-pVTZ SCRF=(IEFPCM,solvent=ethano
 l) SCF(maxCyc=200,conver=8) 5D 7F gfinput pop=full guess=read geom=che
 ckpoint
 ----------------------------------------------------------------------
 1/29=2,38=1/1;
 2/12=2,40=1/2;
 3/5=16,6=1,7=10,8=11,11=2,14=-4,16=1,24=10,25=1,30=1,70=2201,72=4,74=-5,116=-2/1,2,8,3;
 4/5=1/1;
 5/5=2,6=8,7=200,38=6,53=4/2;
 8/6=1,10=1,108=3/1;
 9/41=3,42=1,48=1/14;
 6/7=3/1;
 99/5=1,9=1/99;
 -------------------------------------------------
 Zn12S12 K testing with B3LYP/SBKJ(d) and 6-311+G*
 -------------------------------------------------
 Redundant internal coordinates taken from checkpoint file:
 azetona-b3lyp-acct-etanol.chk
 Charge =  0 Multiplicity = 1
 C,0,0.,0.,0.1773939735
 C,0,0.,1.2840467658,-0.6134189952
 C,0,0.,-1.2840467658,-0.6134189952
 H,0,0.,-2.143518236,0.0514859408
 H,0,-0.8759635461,-1.3203353862,-1.2640678879
 H,0,0.8759635461,-1.3203353862,-1.2640678879
 H,0,0.,2.143518236,0.0514859408
 H,0,0.8759635461,1.3203353862,-1.2640678879
 H,0,-0.8759635461,1.3203353862,-1.2640678879
 O,0,0.,0.,1.3950116869
 Recover connectivity data from disk.
                          Input orientation:                          
 ---------------------------------------------------------------------
 Center     Atomic      Atomic             Coordinates (Angstroms)
 Number     Number       Type             X           Y           Z
 ---------------------------------------------------------------------
      1          6           0        0.000000    0.000000    0.177394
      2          6           0        0.000000    1.284047   -0.613419
      3          6           0        0.000000   -1.284047   -0.613419
      4          1           0        0.000000   -2.143518    0.051486
      5          1           0       -0.875964   -1.320335   -1.264068
      6          1           0        0.875964   -1.320335   -1.264068
      7          1           0        0.000000    2.143518    0.051486
      8          1           0        0.875964    1.320335   -1.264068
      9          1           0       -0.875964    1.320335   -1.264068
     10          8           0        0.000000    0.000000    1.395012
 ---------------------------------------------------------------------
                    Distance matrix (angstroms):
                    1          2          3          4          5
     1  C    0.000000
     2  C    1.508032   0.000000
     3  C    1.508032   2.568094   0.000000
     4  H    2.147213   3.491461   1.086642   0.000000
     5  H    2.142057   2.823732   1.091775   1.782028   0.000000
     6  H    2.142057   2.823732   1.091775   1.782028   1.751927
     7  H    2.147213   1.086642   3.491461   4.287036   3.807398
     8  H    2.142057   1.091775   2.823732   3.807398   3.168973
     9  H    2.142057   1.091775   2.823732   3.807398   2.640671
    10  O    1.217618   2.383814   2.383814   2.529769   3.095368
                    6          7          8          9         10
     6  H    0.000000
     7  H    3.807398   0.000000
     8  H    2.640671   1.782028   0.000000
     9  H    3.168973   1.782028   1.751927   0.000000
    10  O    3.095368   2.529769   3.095368   3.095368   0.000000
 Stoichiometry    C3H6O
 Framework group  C2V[C2(CO),SGV(C2H2),X(H4)]
 Deg. of freedom     8
 Full point group                 C2V     NOp   4
 Largest Abelian subgroup         C2V     NOp   4
 Largest concise Abelian subgroup C2V     NOp   4
                         Standard orientation:                         
 ---------------------------------------------------------------------
 Center     Atomic      Atomic             Coordinates (Angstroms)
 Number     Number       Type             X           Y           Z
 ---------------------------------------------------------------------
      1          6           0        0.000000    0.000000    0.180202
      2          6           0        0.000000    1.284047   -0.610611
      3          6           0        0.000000   -1.284047   -0.610611
      4          1           0        0.000000   -2.143518    0.054294
      5          1           0       -0.875964   -1.320335   -1.261259
      6          1           0        0.875964   -1.320335   -1.261259
      7          1           0        0.000000    2.143518    0.054294
      8          1           0        0.875964    1.320335   -1.261259
      9          1           0       -0.875964    1.320335   -1.261259
     10          8           0        0.000000    0.000000    1.397820
 ---------------------------------------------------------------------
 Rotational constants (GHZ):     10.1705475      8.5725971      4.9326078
 Standard basis: Aug-CC-pVTZ (5D, 7F)
 AO basis set in the form of general basis input (Overlap normalization):
      1 0
 S   7 1.00       0.000000000000
      0.8236000000D+04  0.5419783203D-03
      0.1235000000D+04  0.4192873817D-02
      0.2808000000D+03  0.2152216205D-01
      0.7927000000D+02  0.8353432195D-01
      0.2559000000D+02  0.2395828457D+00
      0.8997000000D+01  0.4428528419D+00
      0.3319000000D+01  0.3517995618D+00
 S   6 1.00       0.000000000000
      0.2808000000D+03 -0.5949224937D-04
      0.7927000000D+02 -0.1148158310D-02
      0.2559000000D+02 -0.1001913745D-01
      0.8997000000D+01 -0.6121949230D-01
      0.3319000000D+01 -0.1732698541D+00
      0.3643000000D+00  0.1072915192D+01
 S   1 1.00       0.000000000000
      0.9059000000D+00  0.1000000000D+01
 S   1 1.00       0.000000000000
      0.1285000000D+00  0.1000000000D+01
 S   1 1.00       0.000000000000
      0.4402000000D-01  0.1000000000D+01
 P   3 1.00       0.000000000000
      0.1871000000D+02  0.3942638716D-01
      0.4133000000D+01  0.2440889849D+00
      0.1200000000D+01  0.8154920089D+00
 P   1 1.00       0.000000000000
      0.3827000000D+00  0.1000000000D+01
 P   1 1.00       0.000000000000
      0.1209000000D+00  0.1000000000D+01
 P   1 1.00       0.000000000000
      0.3569000000D-01  0.1000000000D+01
 D   1 1.00       0.000000000000
      0.1097000000D+01  0.1000000000D+01
 D   1 1.00       0.000000000000
      0.3180000000D+00  0.1000000000D+01
 D   1 1.00       0.000000000000
      0.1000000000D+00  0.1000000000D+01
 F   1 1.00       0.000000000000
      0.7610000000D+00  0.1000000000D+01
 F   1 1.00       0.000000000000
      0.2680000000D+00  0.1000000000D+01
 ****
      2 0
 S   7 1.00       0.000000000000
      0.8236000000D+04  0.5419783203D-03
      0.1235000000D+04  0.4192873817D-02
      0.2808000000D+03  0.2152216205D-01
      0.7927000000D+02  0.8353432195D-01
      0.2559000000D+02  0.2395828457D+00
      0.8997000000D+01  0.4428528419D+00
      0.3319000000D+01  0.3517995618D+00
 S   6 1.00       0.000000000000
      0.2808000000D+03 -0.5949224937D-04
      0.7927000000D+02 -0.1148158310D-02
      0.2559000000D+02 -0.1001913745D-01
      0.8997000000D+01 -0.6121949230D-01
      0.3319000000D+01 -0.1732698541D+00
      0.3643000000D+00  0.1072915192D+01
 S   1 1.00       0.000000000000
      0.9059000000D+00  0.1000000000D+01
 S   1 1.00       0.000000000000
      0.1285000000D+00  0.1000000000D+01
 S   1 1.00       0.000000000000
      0.4402000000D-01  0.1000000000D+01
 P   3 1.00       0.000000000000
      0.1871000000D+02  0.3942638716D-01
      0.4133000000D+01  0.2440889849D+00
      0.1200000000D+01  0.8154920089D+00
 P   1 1.00       0.000000000000
      0.3827000000D+00  0.1000000000D+01
 P   1 1.00       0.000000000000
      0.1209000000D+00  0.1000000000D+01
 P   1 1.00       0.000000000000
      0.3569000000D-01  0.1000000000D+01
 D   1 1.00       0.000000000000
      0.1097000000D+01  0.1000000000D+01
 D   1 1.00       0.000000000000
      0.3180000000D+00  0.1000000000D+01
 D   1 1.00       0.000000000000
      0.1000000000D+00  0.1000000000D+01
 F   1 1.00       0.000000000000
      0.7610000000D+00  0.1000000000D+01
 F   1 1.00       0.000000000000
      0.2680000000D+00  0.1000000000D+01
 ****
      3 0
 S   7 1.00       0.000000000000
      0.8236000000D+04  0.5419783203D-03
      0.1235000000D+04  0.4192873817D-02
      0.2808000000D+03  0.2152216205D-01
      0.7927000000D+02  0.8353432195D-01
      0.2559000000D+02  0.2395828457D+00
      0.8997000000D+01  0.4428528419D+00
      0.3319000000D+01  0.3517995618D+00
 S   6 1.00       0.000000000000
      0.2808000000D+03 -0.5949224937D-04
      0.7927000000D+02 -0.1148158310D-02
      0.2559000000D+02 -0.1001913745D-01
      0.8997000000D+01 -0.6121949230D-01
      0.3319000000D+01 -0.1732698541D+00
      0.3643000000D+00  0.1072915192D+01
 S   1 1.00       0.000000000000
      0.9059000000D+00  0.1000000000D+01
 S   1 1.00       0.000000000000
      0.1285000000D+00  0.1000000000D+01
 S   1 1.00       0.000000000000
      0.4402000000D-01  0.1000000000D+01
 P   3 1.00       0.000000000000
      0.1871000000D+02  0.3942638716D-01
      0.4133000000D+01  0.2440889849D+00
      0.1200000000D+01  0.8154920089D+00
 P   1 1.00       0.000000000000
      0.3827000000D+00  0.1000000000D+01
 P   1 1.00       0.000000000000
      0.1209000000D+00  0.1000000000D+01
 P   1 1.00       0.000000000000
      0.3569000000D-01  0.1000000000D+01
 D   1 1.00       0.000000000000
      0.1097000000D+01  0.1000000000D+01
 D   1 1.00       0.000000000000
      0.3180000000D+00  0.1000000000D+01
 D   1 1.00       0.000000000000
      0.1000000000D+00  0.1000000000D+01
 F   1 1.00       0.000000000000
      0.7610000000D+00  0.1000000000D+01
 F   1 1.00       0.000000000000
      0.2680000000D+00  0.1000000000D+01
 ****
      4 0
 S   3 1.00       0.000000000000
      0.3387000000D+02  0.2549486323D-01
      0.5095000000D+01  0.1903627659D+00
      0.1159000000D+01  0.8521620222D+00
 S   1 1.00       0.000000000000
      0.3258000000D+00  0.1000000000D+01
 S   1 1.00       0.000000000000
      0.1027000000D+00  0.1000000000D+01
 S   1 1.00       0.000000000000
      0.2526000000D-01  0.1000000000D+01
 P   1 1.00       0.000000000000
      0.1407000000D+01  0.1000000000D+01
 P   1 1.00       0.000000000000
      0.3880000000D+00  0.1000000000D+01
 P   1 1.00       0.000000000000
      0.1020000000D+00  0.1000000000D+01
 D   1 1.00       0.000000000000
      0.1057000000D+01  0.1000000000D+01
 D   1 1.00       0.000000000000
      0.2470000000D+00  0.1000000000D+01
 ****
      5 0
 S   3 1.00       0.000000000000
      0.3387000000D+02  0.2549486323D-01
      0.5095000000D+01  0.1903627659D+00
      0.1159000000D+01  0.8521620222D+00
 S   1 1.00       0.000000000000
      0.3258000000D+00  0.1000000000D+01
 S   1 1.00       0.000000000000
      0.1027000000D+00  0.1000000000D+01
 S   1 1.00       0.000000000000
      0.2526000000D-01  0.1000000000D+01
 P   1 1.00       0.000000000000
      0.1407000000D+01  0.1000000000D+01
 P   1 1.00       0.000000000000
      0.3880000000D+00  0.1000000000D+01
 P   1 1.00       0.000000000000
      0.1020000000D+00  0.1000000000D+01
 D   1 1.00       0.000000000000
      0.1057000000D+01  0.1000000000D+01
 D   1 1.00       0.000000000000
      0.2470000000D+00  0.1000000000D+01
 ****
      6 0
 S   3 1.00       0.000000000000
      0.3387000000D+02  0.2549486323D-01
      0.5095000000D+01  0.1903627659D+00
      0.1159000000D+01  0.8521620222D+00
 S   1 1.00       0.000000000000
      0.3258000000D+00  0.1000000000D+01
 S   1 1.00       0.000000000000
      0.1027000000D+00  0.1000000000D+01
 S   1 1.00       0.000000000000
      0.2526000000D-01  0.1000000000D+01
 P   1 1.00       0.000000000000
      0.1407000000D+01  0.1000000000D+01
 P   1 1.00       0.000000000000
      0.3880000000D+00  0.1000000000D+01
 P   1 1.00       0.000000000000
      0.1020000000D+00  0.1000000000D+01
 D   1 1.00       0.000000000000
      0.1057000000D+01  0.1000000000D+01
 D   1 1.00       0.000000000000
      0.2470000000D+00  0.1000000000D+01
 ****
      7 0
 S   3 1.00       0.000000000000
      0.3387000000D+02  0.2549486323D-01
      0.5095000000D+01  0.1903627659D+00
      0.1159000000D+01  0.8521620222D+00
 S   1 1.00       0.000000000000
      0.3258000000D+00  0.1000000000D+01
 S   1 1.00       0.000000000000
      0.1027000000D+00  0.1000000000D+01
 S   1 1.00       0.000000000000
      0.2526000000D-01  0.1000000000D+01
 P   1 1.00       0.000000000000
      0.1407000000D+01  0.1000000000D+01
 P   1 1.00       0.000000000000
      0.3880000000D+00  0.1000000000D+01
 P   1 1.00       0.000000000000
      0.1020000000D+00  0.1000000000D+01
 D   1 1.00       0.000000000000
      0.1057000000D+01  0.1000000000D+01
 D   1 1.00       0.000000000000
      0.2470000000D+00  0.1000000000D+01
 ****
      8 0
 S   3 1.00       0.000000000000
      0.3387000000D+02  0.2549486323D-01
      0.5095000000D+01  0.1903627659D+00
      0.1159000000D+01  0.8521620222D+00
 S   1 1.00       0.000000000000
      0.3258000000D+00  0.1000000000D+01
 S   1 1.00       0.000000000000
      0.1027000000D+00  0.1000000000D+01
 S   1 1.00       0.000000000000
      0.2526000000D-01  0.1000000000D+01
 P   1 1.00       0.000000000000
      0.1407000000D+01  0.1000000000D+01
 P   1 1.00       0.000000000000
      0.3880000000D+00  0.1000000000D+01
 P   1 1.00       0.000000000000
      0.1020000000D+00  0.1000000000D+01
 D   1 1.00       0.000000000000
      0.1057000000D+01  0.1000000000D+01
 D   1 1.00       0.000000000000
      0.2470000000D+00  0.1000000000D+01
 ****
      9 0
 S   3 1.00       0.000000000000
      0.3387000000D+02  0.2549486323D-01
      0.5095000000D+01  0.1903627659D+00
      0.1159000000D+01  0.8521620222D+00
 S   1 1.00       0.000000000000
      0.3258000000D+00  0.1000000000D+01
 S   1 1.00       0.000000000000
      0.1027000000D+00  0.1000000000D+01
 S   1 1.00       0.000000000000
      0.2526000000D-01  0.1000000000D+01
 P   1 1.00       0.000000000000
      0.1407000000D+01  0.1000000000D+01
 P   1 1.00       0.000000000000
      0.3880000000D+00  0.1000000000D+01
 P   1 1.00       0.000000000000
      0.1020000000D+00  0.1000000000D+01
 D   1 1.00       0.000000000000
      0.1057000000D+01  0.1000000000D+01
 D   1 1.00       0.000000000000
      0.2470000000D+00  0.1000000000D+01
 ****
     10 0
 S   7 1.00       0.000000000000
      0.1533000000D+05  0.5198089434D-03
      0.2299000000D+04  0.4020256215D-02
      0.5224000000D+03  0.2071282673D-01
      0.1473000000D+03  0.8101055358D-01
      0.4755000000D+02  0.2359629851D+00
      0.1676000000D+02  0.4426534455D+00
      0.6207000000D+01  0.3570644227D+00
 S   6 1.00       0.000000000000
      0.5224000000D+03 -0.4421150084D-04
      0.1473000000D+03 -0.1225910413D-02
      0.4755000000D+02 -0.1055177248D-01
      0.1676000000D+02 -0.6744526326D-01
      0.6207000000D+01 -0.1711986073D+00
      0.6882000000D+00  0.1073298561D+01
 S   1 1.00       0.000000000000
      0.1752000000D+01  0.1000000000D+01
 S   1 1.00       0.000000000000
      0.2384000000D+00  0.1000000000D+01
 S   1 1.00       0.000000000000
      0.7376000000D-01  0.1000000000D+01
 P   3 1.00       0.000000000000
      0.3446000000D+02  0.4116348957D-01
      0.7749000000D+01  0.2577628359D+00
      0.2280000000D+01  0.8024192744D+00
 P   1 1.00       0.000000000000
      0.7156000000D+00  0.1000000000D+01
 P   1 1.00       0.000000000000
      0.2140000000D+00  0.1000000000D+01
 P   1 1.00       0.000000000000
      0.5974000000D-01  0.1000000000D+01
 D   1 1.00       0.000000000000
      0.2314000000D+01  0.1000000000D+01
 D   1 1.00       0.000000000000
      0.6450000000D+00  0.1000000000D+01
 D   1 1.00       0.000000000000
      0.2140000000D+00  0.1000000000D+01
 F   1 1.00       0.000000000000
      0.1428000000D+01  0.1000000000D+01
 F   1 1.00       0.000000000000
      0.5000000000D+00  0.1000000000D+01
 ****

 There are   107 symmetry adapted basis functions of A1  symmetry.
 There are    56 symmetry adapted basis functions of A2  symmetry.
 There are    68 symmetry adapted basis functions of B1  symmetry.
 There are    91 symmetry adapted basis functions of B2  symmetry.
 Integral buffers will be    131072 words long.
 Raffenetti 2 integral format.
 Two-electron integral symmetry is turned on.
   322 basis functions,   450 primitive gaussians,   370 cartesian basis functions
    16 alpha electrons       16 beta electrons
       nuclear repulsion energy       119.5578380347 Hartrees.
 NAtoms=   10 NActive=   10 NUniq=    5 SFac= 4.00D+00 NAtFMM=   50 NAOKFM=F Big=F
 ------------------------------------------------------------------------------
 Polarizable Continuum Model (PCM)
 =================================
 Model                : PCM.
 Atomic radii         : UFF (Universal Force Field).
 Polarization charges : Total charges.
 Charge compensation  : None.
 Solution method      : Matrix inversion.
 Cavity type          : Scaled VdW (van der Waals Surface) (Alpha=1.100).
 Cavity algorithm     : GePol (No added spheres)
                        Default sphere list used, NSphG=   10.
                        Lebedev-Laikov grids with approx.  5.0 points / Ang**2.
                        Smoothing algorithm: Karplus/York (Gamma=1.0000).
                        Polarization charges: spherical gaussians, with
                                              point-specific exponents (IZeta= 3).
                        Self-potential: point-specific (ISelfS= 7).
                        Self-field    : sphere-specific E.n sum rule (ISelfD= 2).
 Solvent              : Ethanol, Eps=  24.852000 Eps(inf)=   1.852593
 ------------------------------------------------------------------------------
 Spheres list:
 ISph  on   Nord    Re0     Alpha      Xe            Ye            Ze
    1   C      1    1.925   1.100      0.000000      0.000000      0.180202
    2   C      2    1.925   1.100      0.000000      1.284047     -0.610611
    3   C      3    1.925   1.100      0.000000     -1.284047     -0.610611
    4   H      4    1.443   1.100      0.000000     -2.143518      0.054294
    5   H      5    1.443   1.100     -0.875964     -1.320335     -1.261259
    6   H      6    1.443   1.100      0.875964     -1.320335     -1.261259
    7   H      7    1.443   1.100      0.000000      2.143518      0.054294
    8   H      8    1.443   1.100      0.875964      1.320335     -1.261259
    9   H      9    1.443   1.100     -0.875964      1.320335     -1.261259
   10   O     10    1.750   1.100      0.000000      0.000000      1.397820
 ------------------------------------------------------------------------------
 One-electron integrals computed using PRISM.
 NBasis=   322 RedAO= T  NBF=   107    56    68    91
 NBsUse=   322 1.00D-06 NBFU=   107    56    68    91
 Initial guess read from the checkpoint file:  azetona-b3lyp-acct-etanol.chk
 B after Tr=     0.000000    0.000000    0.000000
         Rot=    1.000000    0.000000    0.000000    0.000000 Ang=   0.00 deg.
 Initial guess orbital symmetries:
       Occupied  (A1) (A1) (A1) (B2) (A1) (A1) (B2) (A1) (B2) (B1)
                 (A1) (A1) (A2) (B2) (B1) (B2)
       Virtual   (B1) (A1) (B2) (A1) (B1) (B2) (A1) (A2) (A1) (B1)
                 (A1) (B2) (A1) (B2) (A2) (B1) (A1) (B2) (B1) (B2)
                 (A2) (A1) (A1) (B1) (B2) (A1) (B2) (A1) (A1) (B2)
                 (B1) (A2) (A1) (B2) (B1) (A2) (A1) (B1) (B2) (A1)
                 (B1) (A2) (A1) (A1) (B2) (A2) (B1) (B2) (A1) (B2)
                 (A1) (B2) (A2) (A1) (B2) (A1) (B1) (B2) (B1) (A2)
                 (A1) (B2) (B1) (B2) (A1) (A2) (A1) (B2) (A1) (A2)
                 (A1) (B1) (B2) (A1) (B2) (B1) (A2) (B1) (A1) (B2)
                 (A1) (B1) (A1) (A2) (B2) (A2) (B2) (B1) (A1) (A1)
                 (A1) (A2) (B1) (A2) (B2) (A1) (B1) (B2) (B1) (B2)
                 (A1) (B1) (A2) (B2) (A1) (B2) (A2) (A1) (B1) (B2)
                 (A1) (B2) (B1) (A2) (A1) (B1) (A1) (A2) (B2) (A1)
                 (B2) (A2) (B1) (B2) (A2) (A1) (A1) (B2) (B1) (A1)
                 (A2) (B2) (A1) (B1) (B1) (B2) (A1) (A2) (A1) (B2)
                 (A1) (B2) (A2) (B1) (B1) (B2) (A1) (B2) (A2) (A1)
                 (B1) (A2) (B2) (A1) (B2) (A1) (B1) (B2) (A2) (B1)
                 (A1) (B1) (B2) (A2) (B2) (A1) (A2) (B1) (A1) (B2)
                 (A2) (A1) (B1) (A1) (B2) (B1) (A1) (A2) (B2) (B2)
                 (A1) (B2) (A1) (B1) (A1) (A2) (B2) (B2) (A1) (B1)
                 (A1) (B1) (A2) (B2) (A1) (B2) (A1) (A2) (B1) (B1)
                 (B2) (A2) (B1) (A1) (B2) (A1) (A2) (B2) (B1) (A2)
                 (A1) (A1) (B2) (A1) (B1) (A2) (A2) (B2) (B1) (A1)
                 (B2) (B1) (A1) (B2) (A1) (A2) (B1) (A1) (B1) (B2)
                 (A2) (A2) (A1) (B1) (B2) (A1) (B1) (B2) (A2) (A1)
                 (B2) (B1) (A1) (A1) (B2) (B2) (A2) (A1) (A1) (A2)
                 (B1) (B2) (B1) (B2) (A1) (B2) (A1) (B1) (A1) (A2)
                 (B2) (B1) (A2) (A2) (B2) (A1) (B1) (B2) (A1) (B2)
                 (A2) (B1) (A2) (A1) (B1) (B2) (A1) (B2) (B2) (A1)
                 (B1) (B2) (A1) (A2) (B2) (A1) (B1) (B2) (A2) (A1)
                 (B1) (B2) (A2) (A1) (B1) (A1) (A2) (B2) (A1) (B1)
                 (A1) (B2) (A1) (A1) (B2) (A1)
 Requested convergence on RMS density matrix=1.00D-08 within 200 cycles.
 Requested convergence on MAX density matrix=1.00D-06.
 Requested convergence on             energy=1.00D-06.
 No special actions if energy rises.
 Error on total polarization charges =  0.01087
 SCF Done:  E(RB3LYP) =  -193.242955808     A.U. after    1 cycles
             Convg  =    0.2588D-08             -V/T =  2.0065
 ExpMin= 2.53D-02 ExpMax= 1.53D+04 ExpMxC= 5.22D+02 IAcc=3 IRadAn=         5 AccDes= 0.00D+00
 HarFok:  IExCor=  205 AccDes= 0.00D+00 IRadAn=         5 IDoV=-2
 ScaDFX=  1.000000  1.000000  1.000000  1.000000
 Range of M.O.s used for correlation:     5   322
 NBasis=   322 NAE=    16 NBE=    16 NFC=     4 NFV=     0
 NROrb=    318 NOA=    12 NOB=    12 NVA=   306 NVB=   306

 **** Warning!!: The largest alpha MO coefficient is  0.43959316D+02

 Would need an additional  6208600000 words for in-memory AO integral storage.
 NEqPCM:  Using non-equilibrium solvation (IEInf=1, Eps=  24.8520, EpsInf=   1.8526)
 Orbital symmetries:
       Occupied  (A1) (A1) (A1) (B2) (A1) (A1) (B2) (A1) (B2) (B1)
                 (A1) (A1) (A2) (B2) (B1) (B2)
       Virtual   (B1) (A1) (B2) (A1) (B1) (B2) (A1) (A2) (A1) (B1)
                 (A1) (B2) (A1) (B2) (A2) (B1) (A1) (B2) (B1) (B2)
                 (A2) (A1) (A1) (B1) (B2) (A1) (B2) (A1) (A1) (B2)
                 (B1) (A2) (A1) (B2) (B1) (A2) (A1) (B1) (B2) (A1)
                 (B1) (A2) (A1) (A1) (B2) (A2) (B1) (B2) (A1) (B2)
                 (A1) (B2) (A2) (A1) (B2) (A1) (B1) (B2) (B1) (A2)
                 (A1) (B2) (B1) (B2) (A1) (A2) (A1) (B2) (A1) (A2)
                 (A1) (B1) (B2) (A1) (B2) (B1) (A2) (B1) (A1) (B2)
                 (A1) (B1) (A1) (A2) (B2) (A2) (B2) (B1) (A1) (A1)
                 (A1) (A2) (B1) (A2) (B2) (A1) (B1) (B2) (B1) (B2)
                 (A1) (B1) (A2) (B2) (A1) (B2) (A2) (A1) (B1) (B2)
                 (A1) (B2) (B1) (A2) (A1) (B1) (A1) (A2) (B2) (A1)
                 (B2) (A2) (B1) (B2) (A2) (A1) (A1) (B2) (B1) (A1)
                 (A2) (B2) (A1) (B1) (B1) (B2) (A1) (A2) (A1) (B2)
                 (A1) (B2) (A2) (B1) (B1) (B2) (A1) (B2) (A2) (A1)
                 (B1) (A2) (B2) (A1) (B2) (A1) (B1) (B2) (A2) (B1)
                 (A1) (B1) (B2) (A2) (B2) (A1) (A2) (B1) (A1) (B2)
                 (A2) (A1) (B1) (A1) (B2) (B1) (A1) (A2) (B2) (B2)
                 (A1) (B2) (A1) (B1) (A1) (A2) (B2) (B2) (A1) (B1)
                 (A1) (B1) (A2) (B2) (A1) (B2) (A1) (A2) (B1) (B1)
                 (B2) (A2) (B1) (A1) (B2) (A1) (A2) (B2) (B1) (A2)
                 (A1) (A1) (B2) (A1) (B1) (A2) (A2) (B2) (B1) (A1)
                 (B2) (B1) (A1) (B2) (A1) (A2) (B1) (A1) (B1) (B2)
                 (A2) (A2) (A1) (B1) (B2) (A1) (B1) (B2) (A2) (A1)
                 (B2) (B1) (A1) (A1) (B2) (B2) (A2) (A1) (A1) (A2)
                 (B1) (B2) (B1) (B2) (A1) (B2) (A1) (B1) (A1) (A2)
                 (B2) (B1) (A2) (A2) (B2) (A1) (B1) (B2) (A1) (B2)
                 (A2) (B1) (A2) (A1) (B1) (B2) (A1) (B2) (B2) (A1)
                 (B1) (B2) (A1) (A2) (B2) (A1) (B1) (B2) (A2) (A1)
                 (B1) (B2) (A2) (A1) (B1) (A1) (A2) (B2) (A1) (B1)
                 (A1) (B2) (A1) (A1) (B2) (A1)
    12 initial guesses have been made.
 Convergence on wavefunction:    0.001000000000000
 Iteration     1 Dimension    12 NMult    12
 CISAX will form    12 AO SS matrices at one time.
 Iteration     2 Dimension    18 NMult    18
 Iteration     3 Dimension    24 NMult    24
 Iteration     4 Dimension    30 NMult    30
 Iteration     5 Dimension    32 NMult    32
 ***********************************************************************
 Excited states from <AA,BB:AA,BB> singles matrix:
 ***********************************************************************
 
 Ground to excited state transition densities written to RWF  633
 Ground to excited state transition electric dipole moments (Au):
       state          X           Y           Z        Dip. S.      Osc.
         1         0.0000      0.0000      0.0000      0.0000      0.0000
         2         0.0000      0.5271      0.0000      0.2778      0.0416
         3         0.0000      0.0000      0.0206      0.0004      0.0001
 Ground to excited state transition velocity dipole moments (Au):
       state          X           Y           Z        Dip. S.      Osc.
         1         0.0000      0.0000      0.0000      0.0000      0.0000
         2         0.0000     -0.1193      0.0000      0.0142      0.0423
         3         0.0000      0.0000     -0.0061      0.0000      0.0001
 Ground to excited state transition magnetic dipole moments (Au):
       state          X           Y           Z
         1         0.0000      0.0000      1.2163
         2         0.4206      0.0000      0.0000
         3         0.0000      0.0000      0.0000
 Ground to excited state transition velocity quadrupole moments (Au):
       state          XX          YY          ZZ          XY          XZ          YZ
         1         0.0000      0.0000      0.0000     -0.1307      0.0000      0.0000
         2         0.0000      0.0000      0.0000      0.0000      0.0000     -0.0212
         3        -0.1144     -0.5277     -0.2305      0.0000      0.0000      0.0000
 <0|del|b> * <b|rxdel|0> + <0|del|b> * <b|delr+rdel|0>
 Rotatory Strengths (R) in cgs (10**-40 erg-esu-cm/Gauss)
       state          XX          YY          ZZ    R(velocity)
         1         0.0000      0.0000      0.0000      0.0000
         2         0.0000      0.0000      0.0000      0.0000
         3         0.0000      0.0000      0.0000      0.0000
 1/2[<0|r|b>*<b|rxdel|0> + (<0|rxdel|b>*<b|r|0>)*]
 Rotatory Strengths (R) in cgs (10**-40 erg-esu-cm/Gauss)
       state          XX          YY          ZZ     R(length)
         1         0.0000      0.0000      0.0000      0.0000
         2         0.0000      0.0000      0.0000      0.0000
         3         0.0000      0.0000      0.0000      0.0000
  1/2[<0|del|b>*<b|r|0> + (<0|r|b>*<b|del|0>)*] (Au)
       state          X           Y           Z        Dip. S.   Osc.(frdel)
         1         0.0000      0.0000      0.0000      0.0000      0.0000
         2         0.0000     -0.0629      0.0000      0.0629      0.0419
         3         0.0000      0.0000     -0.0001      0.0001      0.0001

 Excitation energies and oscillator strengths:
 
 Excited State   1:      Singlet-A2     4.5313 eV  273.62 nm  f=0.0000  <S**2>=0.000
      16 -> 17         0.70168
 This state for optimization and/or second-order correction.
 Total Energy, E(TD-HF/TD-KS) =  -193.076434030    
 Copying the excited state density for this state as the 1-particle RhoCI density.
 
 Excited State   2:      Singlet-B2     6.1098 eV  202.93 nm  f=0.0416  <S**2>=0.000
      16 -> 18         0.69829
 
 Excited State   3:      Singlet-A1     6.8891 eV  179.97 nm  f=0.0001  <S**2>=0.000
      16 -> 19         0.69945
 SavETr:  write IOETrn=   770 NScale= 10 NData=  16 NLR=1 LETran=      64.

 **********************************************************************

            Population analysis using the SCF density.

 **********************************************************************

 Orbital symmetries:
       Occupied  (A1) (A1) (A1) (B2) (A1) (A1) (B2) (A1) (B2) (B1)
                 (A1) (A1) (A2) (B2) (B1) (B2)
       Virtual   (B1) (A1) (B2) (A1) (B1) (B2) (A1) (A2) (A1) (B1)
                 (A1) (B2) (A1) (B2) (A2) (B1) (A1) (B2) (B1) (B2)
                 (A2) (A1) (A1) (B1) (B2) (A1) (B2) (A1) (A1) (B2)
                 (B1) (A2) (A1) (B2) (B1) (A2) (A1) (B1) (B2) (A1)
                 (B1) (A2) (A1) (A1) (B2) (A2) (B1) (B2) (A1) (B2)
                 (A1) (B2) (A2) (A1) (B2) (A1) (B1) (B2) (B1) (A2)
                 (A1) (B2) (B1) (B2) (A1) (A2) (A1) (B2) (A1) (A2)
                 (A1) (B1) (B2) (A1) (B2) (B1) (A2) (B1) (A1) (B2)
                 (A1) (B1) (A1) (A2) (B2) (A2) (B2) (B1) (A1) (A1)
                 (A1) (A2) (B1) (A2) (B2) (A1) (B1) (B2) (B1) (B2)
                 (A1) (B1) (A2) (B2) (A1) (B2) (A2) (A1) (B1) (B2)
                 (A1) (B2) (B1) (A2) (A1) (B1) (A1) (A2) (B2) (A1)
                 (B2) (A2) (B1) (B2) (A2) (A1) (A1) (B2) (B1) (A1)
                 (A2) (B2) (A1) (B1) (B1) (B2) (A1) (A2) (A1) (B2)
                 (A1) (B2) (A2) (B1) (B1) (B2) (A1) (B2) (A2) (A1)
                 (B1) (A2) (B2) (A1) (B2) (A1) (B1) (B2) (A2) (B1)
                 (A1) (B1) (B2) (A2) (B2) (A1) (A2) (B1) (A1) (B2)
                 (A2) (A1) (B1) (A1) (B2) (B1) (A1) (A2) (B2) (B2)
                 (A1) (B2) (A1) (B1) (A1) (A2) (B2) (B2) (A1) (B1)
                 (A1) (B1) (A2) (B2) (A1) (B2) (A1) (A2) (B1) (B1)
                 (B2) (A2) (B1) (A1) (B2) (A1) (A2) (B2) (B1) (A2)
                 (A1) (A1) (B2) (A1) (B1) (A2) (A2) (B2) (B1) (A1)
                 (B2) (B1) (A1) (B2) (A1) (A2) (B1) (A1) (B1) (B2)
                 (A2) (A2) (A1) (B1) (B2) (A1) (B1) (B2) (A2) (A1)
                 (B2) (B1) (A1) (A1) (B2) (B2) (A2) (A1) (A1) (A2)
                 (B1) (B2) (B1) (B2) (A1) (B2) (A1) (B1) (A1) (A2)
                 (B2) (B1) (A2) (A2) (B2) (A1) (B1) (B2) (A1) (B2)
                 (A2) (B1) (A2) (A1) (B1) (B2) (A1) (B2) (B2) (A1)
                 (B1) (B2) (A1) (A2) (B2) (A1) (B1) (B2) (A2) (A1)
                 (B1) (B2) (A2) (A1) (B1) (A1) (A2) (B2) (A1) (B1)
                 (A1) (B2) (A1) (A1) (B2) (A1)
 The electronic state is 1-A1.
 Alpha  occ. eigenvalues --  -19.12887 -10.27478 -10.17601 -10.17599  -1.05309
 Alpha  occ. eigenvalues --   -0.77511  -0.71398  -0.53988  -0.46708  -0.46475
 Alpha  occ. eigenvalues --   -0.46235  -0.40321  -0.40314  -0.38402  -0.36212
 Alpha  occ. eigenvalues --   -0.26495
 Alpha virt. eigenvalues --   -0.03043  -0.01019   0.01160   0.02016   0.02294
 Alpha virt. eigenvalues --    0.03850   0.03864   0.04504   0.06368   0.07100
 Alpha virt. eigenvalues --    0.08134   0.08403   0.08966   0.09194   0.10400
 Alpha virt. eigenvalues --    0.10427   0.10756   0.11216   0.12091   0.13363
 Alpha virt. eigenvalues --    0.14523   0.14854   0.16343   0.17515   0.18337
 Alpha virt. eigenvalues --    0.20226   0.20522   0.20645   0.23555   0.24967
 Alpha virt. eigenvalues --    0.25342   0.26242   0.27598   0.27892   0.28033
 Alpha virt. eigenvalues --    0.28202   0.29188   0.29224   0.30058   0.31362
 Alpha virt. eigenvalues --    0.31933   0.32629   0.33270   0.33436   0.33436
 Alpha virt. eigenvalues --    0.34187   0.34893   0.35328   0.36243   0.36721
 Alpha virt. eigenvalues --    0.40049   0.40613   0.40702   0.41578   0.42900
 Alpha virt. eigenvalues --    0.43996   0.44903   0.46255   0.46798   0.49515
 Alpha virt. eigenvalues --    0.50039   0.51652   0.52634   0.53566   0.53683
 Alpha virt. eigenvalues --    0.53772   0.61157   0.61913   0.63040   0.64062
 Alpha virt. eigenvalues --    0.64337   0.66602   0.67256   0.67275   0.69521
 Alpha virt. eigenvalues --    0.69770   0.71307   0.72611   0.74104   0.74570
 Alpha virt. eigenvalues --    0.75416   0.76245   0.76622   0.76977   0.77694
 Alpha virt. eigenvalues --    0.79687   0.80103   0.81397   0.82132   0.85709
 Alpha virt. eigenvalues --    0.86500   0.86574   0.87473   0.89088   0.89419
 Alpha virt. eigenvalues --    0.92645   0.92656   0.92902   0.95278   0.95709
 Alpha virt. eigenvalues --    0.97401   0.98185   0.98863   1.00668   1.01941
 Alpha virt. eigenvalues --    1.03521   1.04252   1.07559   1.09214   1.10112
 Alpha virt. eigenvalues --    1.10449   1.11848   1.12075   1.13313   1.13835
 Alpha virt. eigenvalues --    1.16156   1.16212   1.18835   1.20423   1.24069
 Alpha virt. eigenvalues --    1.25448   1.27173   1.30617   1.31108   1.31352
 Alpha virt. eigenvalues --    1.32854   1.34956   1.35646   1.36118   1.38981
 Alpha virt. eigenvalues --    1.40225   1.41390   1.41527   1.44428   1.46845
 Alpha virt. eigenvalues --    1.47473   1.48577   1.49046   1.51500   1.52203
 Alpha virt. eigenvalues --    1.55698   1.57794   1.58097   1.58110   1.59115
 Alpha virt. eigenvalues --    1.62799   1.63708   1.65805   1.67036   1.67605
 Alpha virt. eigenvalues --    1.72847   1.73198   1.74980   1.76911   1.77232
 Alpha virt. eigenvalues --    1.80217   1.82795   1.87340   1.87340   1.94427
 Alpha virt. eigenvalues --    1.97060   1.98725   1.98955   1.99099   2.00989
 Alpha virt. eigenvalues --    2.01514   2.03994   2.07807   2.09843   2.11834
 Alpha virt. eigenvalues --    2.15255   2.17660   2.23430   2.24226   2.27444
 Alpha virt. eigenvalues --    2.35091   2.38360   2.38505   2.39549   2.41715
 Alpha virt. eigenvalues --    2.50220   2.51889   2.56435   2.65439   2.67318
 Alpha virt. eigenvalues --    2.72684   2.81412   2.82733   2.83002   2.86156
 Alpha virt. eigenvalues --    2.98874   3.03817   3.07321   3.08137   3.10108
 Alpha virt. eigenvalues --    3.12390   3.13985   3.15543   3.19060   3.22875
 Alpha virt. eigenvalues --    3.27388   3.28252   3.28890   3.29852   3.34743
 Alpha virt. eigenvalues --    3.35786   3.37722   3.37917   3.38857   3.45975
 Alpha virt. eigenvalues --    3.46768   3.52774   3.54972   3.57409   3.58243
 Alpha virt. eigenvalues --    3.61390   3.63360   3.63574   3.63828   3.66149
 Alpha virt. eigenvalues --    3.71638   3.72269   3.74632   3.75621   3.81000
 Alpha virt. eigenvalues --    3.81165   3.82430   3.84719   3.85274   3.85786
 Alpha virt. eigenvalues --    3.90015   3.94031   3.97065   4.02848   4.05704
 Alpha virt. eigenvalues --    4.10024   4.12679   4.13605   4.14508   4.19747
 Alpha virt. eigenvalues --    4.20766   4.30027   4.30108   4.31907   4.35162
 Alpha virt. eigenvalues --    4.40327   4.42842   4.44819   4.47829   4.49401
 Alpha virt. eigenvalues --    4.49758   4.50793   4.54288   4.59606   4.62098
 Alpha virt. eigenvalues --    4.64419   4.72104   4.81526   4.83286   4.86165
 Alpha virt. eigenvalues --    4.86786   4.89500   4.91019   4.97844   5.01222
 Alpha virt. eigenvalues --    5.01840   5.05407   5.05839   5.11888   5.17471
 Alpha virt. eigenvalues --    5.25859   5.26880   5.33784   5.36115   5.36760
 Alpha virt. eigenvalues --    5.38315   5.47977   5.55186   5.61642   5.62952
 Alpha virt. eigenvalues --    5.75575   5.76141   5.77131   5.77309   5.88702
 Alpha virt. eigenvalues --    5.98144   6.19584   6.27934   6.30496   6.33832
 Alpha virt. eigenvalues --    6.35959   6.37551   6.55940   6.58778   6.76995
 Alpha virt. eigenvalues --    6.82451   6.91839   7.01277   7.06840   7.14050
 Alpha virt. eigenvalues --    7.27875   7.39844  14.42792  16.14561  16.45172
 Alpha virt. eigenvalues --   18.55273
     Molecular Orbital Coefficients:
                           1         2         3         4         5
                        (A1)--O   (A1)--O   (A1)--O   (B2)--O   (A1)--O
     Eigenvalues --   -19.12887 -10.27478 -10.17601 -10.17599  -1.05309
   1 1   C  1S          0.00042   0.97732  -0.00173   0.00000  -0.11323
   2        2S          0.00371   0.01499   0.00216   0.00000   0.24055
   3        3S          0.00187   0.05663   0.00144   0.00000   0.06319
   4        4S         -0.01159  -0.01111   0.06204   0.00000   0.07241
   5        5S         -0.00757  -0.02801   0.01062   0.00000  -0.07996
   6        6PX         0.00000   0.00000   0.00000   0.00000   0.00000
   7        6PY         0.00000   0.00000   0.00000   0.00016   0.00000
   8        6PZ         0.00041   0.00064  -0.00033   0.00000   0.10402
   9        7PX         0.00000   0.00000   0.00000   0.00000   0.00000
  10        7PY         0.00000   0.00000   0.00000   0.00502   0.00000
  11        7PZ         0.00478   0.01269   0.00051   0.00000   0.07440
  12        8PX         0.00000   0.00000   0.00000   0.00000   0.00000
  13        8PY         0.00000   0.00000   0.00000  -0.03087   0.00000
  14        8PZ        -0.00667  -0.02484  -0.01989   0.00000  -0.06004
  15        9PX         0.00000   0.00000   0.00000   0.00000   0.00000
  16        9PY         0.00000   0.00000   0.00000   0.00465   0.00000
  17        9PZ        -0.00068  -0.00045   0.00058   0.00000  -0.00113
  18       10D 0        0.00066   0.00242  -0.00032   0.00000   0.01691
  19       10D+1        0.00000   0.00000   0.00000   0.00000   0.00000
  20       10D-1        0.00000   0.00000   0.00000  -0.00018   0.00000
  21       10D+2        0.00005  -0.00127  -0.00027   0.00000  -0.00192
  22       10D-2        0.00000   0.00000   0.00000   0.00000   0.00000
  23       11D 0       -0.00251   0.00271   0.00484   0.00000   0.00101
  24       11D+1        0.00000   0.00000   0.00000   0.00000   0.00000
  25       11D-1        0.00000   0.00000   0.00000  -0.00061   0.00000
  26       11D+2        0.00050   0.00576   0.00435   0.00000  -0.01328
  27       11D-2        0.00000   0.00000   0.00000   0.00000   0.00000
  28       12D 0       -0.00886  -0.02515  -0.00520   0.00000  -0.02839
  29       12D+1        0.00000   0.00000   0.00000   0.00000   0.00000
  30       12D-1        0.00000   0.00000   0.00000   0.01121   0.00000
  31       12D+2       -0.00228  -0.00755  -0.00458   0.00000  -0.00187
  32       12D-2        0.00000   0.00000   0.00000   0.00000   0.00000
  33       13F 0       -0.00045   0.00181  -0.00014   0.00000   0.00823
  34       13F+1        0.00000   0.00000   0.00000   0.00000   0.00000
  35       13F-1        0.00000   0.00000   0.00000  -0.00016   0.00000
  36       13F+2       -0.00025   0.00019  -0.00059   0.00000   0.00382
  37       13F-2        0.00000   0.00000   0.00000   0.00000   0.00000
  38       13F+3        0.00000   0.00000   0.00000   0.00000   0.00000
  39       13F-3        0.00000   0.00000   0.00000   0.00038   0.00000
  40       14F 0       -0.00411  -0.01266  -0.00750   0.00000  -0.00951
  41       14F+1        0.00000   0.00000   0.00000   0.00000   0.00000
  42       14F-1        0.00000   0.00000   0.00000   0.00060   0.00000
  43       14F+2       -0.00227  -0.00457  -0.01039   0.00000  -0.00131
  44       14F-2        0.00000   0.00000   0.00000   0.00000   0.00000
  45       14F+3        0.00000   0.00000   0.00000   0.00000   0.00000
  46       14F-3        0.00000   0.00000   0.00000   0.00076   0.00000
  47 2   C  1S          0.00012   0.00150   0.69137   0.69086  -0.01723
  48        2S          0.00081   0.00159   0.01371   0.00956   0.03639
  49        3S          0.00019   0.00087   0.04091   0.03774   0.01093
  50        4S         -0.00143   0.00817  -0.08634   0.03054  -0.01470
  51        5S          0.00202   0.00717  -0.00999  -0.00792   0.01612
  52        6PX         0.00000   0.00000   0.00000   0.00000   0.00000
  53        6PY         0.00007  -0.00007   0.00008  -0.00012  -0.00976
  54        6PZ        -0.00001   0.00013  -0.00014   0.00008   0.01033
  55        7PX         0.00000   0.00000   0.00000   0.00000   0.00000
  56        7PY        -0.00251  -0.00884  -0.00544   0.00387  -0.00218
  57        7PZ         0.00130   0.00215   0.00196  -0.00363   0.00888
  58        8PX         0.00000   0.00000   0.00000   0.00000   0.00000
  59        8PY         0.00046   0.00474   0.00990  -0.01582   0.02527
  60        8PZ        -0.00090  -0.00082  -0.01381  -0.00043  -0.00400
  61        9PX         0.00000   0.00000   0.00000   0.00000   0.00000
  62        9PY        -0.00027  -0.00127   0.00131   0.00070  -0.00315
  63        9PZ         0.00065   0.00225  -0.00140  -0.00121   0.00482
  64       10D 0        0.00010  -0.00007   0.00011   0.00010   0.00075
  65       10D+1        0.00000   0.00000   0.00000   0.00000   0.00000
  66       10D-1       -0.00016  -0.00053   0.00039   0.00046  -0.00122
  67       10D+2       -0.00009  -0.00043  -0.00006   0.00030  -0.00043
  68       10D-2        0.00000   0.00000   0.00000   0.00000   0.00000
  69       11D 0       -0.00189   0.00028  -0.00052   0.00028  -0.00002
  70       11D+1        0.00000   0.00000   0.00000   0.00000   0.00000
  71       11D-1       -0.00093  -0.00015  -0.00762   0.00169   0.00926
  72       11D+2       -0.00117   0.00577   0.00153   0.00417   0.00363
  73       11D-2        0.00000   0.00000   0.00000   0.00000   0.00000
  74       12D 0       -0.00091   0.00035   0.00029  -0.00277   0.00192
  75       12D+1        0.00000   0.00000   0.00000   0.00000   0.00000
  76       12D-1        0.00140   0.00459   0.00100  -0.00143   0.00995
  77       12D+2       -0.00198  -0.00452   0.00292   0.00174  -0.00327
  78       12D-2        0.00000   0.00000   0.00000   0.00000   0.00000
  79       13F 0       -0.00016   0.00056   0.00010   0.00038   0.00098
  80       13F+1        0.00000   0.00000   0.00000   0.00000   0.00000
  81       13F-1       -0.00002   0.00004  -0.00015   0.00045  -0.00039
  82       13F+2        0.00001   0.00073  -0.00122  -0.00186   0.00027
  83       13F-2        0.00000   0.00000   0.00000   0.00000   0.00000
  84       13F+3        0.00000   0.00000   0.00000   0.00000   0.00000
  85       13F-3        0.00003  -0.00028  -0.00028  -0.00019  -0.00033
  86       14F 0       -0.00150   0.00023  -0.00361   0.00158  -0.00105
  87       14F+1        0.00000   0.00000   0.00000   0.00000   0.00000
  88       14F-1        0.00010   0.00025  -0.00334  -0.00058   0.00457
  89       14F+2       -0.00045  -0.00190   0.00726   0.00393   0.00000
  90       14F-2        0.00000   0.00000   0.00000   0.00000   0.00000
  91       14F+3        0.00000   0.00000   0.00000   0.00000   0.00000
  92       14F-3       -0.00068  -0.00515   0.00145   0.00002  -0.00534
  93 3   C  1S          0.00012   0.00150   0.69137  -0.69086  -0.01723
  94        2S          0.00081   0.00159   0.01371  -0.00956   0.03639
  95        3S          0.00019   0.00087   0.04091  -0.03774   0.01093
  96        4S         -0.00143   0.00817  -0.08634  -0.03054  -0.01470
  97        5S          0.00202   0.00717  -0.00999   0.00792   0.01612
  98        6PX         0.00000   0.00000   0.00000   0.00000   0.00000
  99        6PY        -0.00007   0.00007  -0.00008  -0.00012   0.00976
 100        6PZ        -0.00001   0.00013  -0.00014  -0.00008   0.01033
 101        7PX         0.00000   0.00000   0.00000   0.00000   0.00000
 102        7PY         0.00251   0.00884   0.00544   0.00387   0.00218
 103        7PZ         0.00130   0.00215   0.00196   0.00363   0.00888
 104        8PX         0.00000   0.00000   0.00000   0.00000   0.00000
 105        8PY        -0.00046  -0.00474  -0.00990  -0.01582  -0.02527
 106        8PZ        -0.00090  -0.00082  -0.01381   0.00043  -0.00400
 107        9PX         0.00000   0.00000   0.00000   0.00000   0.00000
 108        9PY         0.00027   0.00127  -0.00131   0.00070   0.00315
 109        9PZ         0.00065   0.00225  -0.00140   0.00121   0.00482
 110       10D 0        0.00010  -0.00007   0.00011  -0.00010   0.00075
 111       10D+1        0.00000   0.00000   0.00000   0.00000   0.00000
 112       10D-1        0.00016   0.00053  -0.00039   0.00046   0.00122
 113       10D+2       -0.00009  -0.00043  -0.00006  -0.00030  -0.00043
 114       10D-2        0.00000   0.00000   0.00000   0.00000   0.00000
 115       11D 0       -0.00189   0.00028  -0.00052  -0.00028  -0.00002
 116       11D+1        0.00000   0.00000   0.00000   0.00000   0.00000
 117       11D-1        0.00093   0.00015   0.00762   0.00169  -0.00926
 118       11D+2       -0.00117   0.00577   0.00153  -0.00417   0.00363
 119       11D-2        0.00000   0.00000   0.00000   0.00000   0.00000
 120       12D 0       -0.00091   0.00035   0.00029   0.00277   0.00192
 121       12D+1        0.00000   0.00000   0.00000   0.00000   0.00000
 122       12D-1       -0.00140  -0.00459  -0.00100  -0.00143  -0.00995
 123       12D+2       -0.00198  -0.00452   0.00292  -0.00174  -0.00327
 124       12D-2        0.00000   0.00000   0.00000   0.00000   0.00000
 125       13F 0       -0.00016   0.00056   0.00010  -0.00038   0.00098
 126       13F+1        0.00000   0.00000   0.00000   0.00000   0.00000
 127       13F-1        0.00002  -0.00004   0.00015   0.00045   0.00039
 128       13F+2        0.00001   0.00073  -0.00122   0.00186   0.00027
 129       13F-2        0.00000   0.00000   0.00000   0.00000   0.00000
 130       13F+3        0.00000   0.00000   0.00000   0.00000   0.00000
 131       13F-3       -0.00003   0.00028   0.00028  -0.00019   0.00033
 132       14F 0       -0.00150   0.00023  -0.00361  -0.00158  -0.00105
 133       14F+1        0.00000   0.00000   0.00000   0.00000   0.00000
 134       14F-1       -0.00010  -0.00025   0.00334  -0.00058  -0.00457
 135       14F+2       -0.00045  -0.00190   0.00726  -0.00393   0.00000
 136       14F-2        0.00000   0.00000   0.00000   0.00000   0.00000
 137       14F+3        0.00000   0.00000   0.00000   0.00000   0.00000
 138       14F-3        0.00068   0.00515  -0.00145   0.00002   0.00534
 139 4   H  1S         -0.00012  -0.00016   0.00013  -0.00007   0.00515
 140        2S          0.00004   0.00192   0.02043  -0.00121  -0.00705
 141        3S         -0.00557  -0.02521   0.01466  -0.00986  -0.03303
 142        4S         -0.00007  -0.00049   0.00043   0.00025  -0.00050
 143        5PX         0.00000   0.00000   0.00000   0.00000   0.00000
 144        5PY        -0.00002   0.00003  -0.00025   0.00053   0.00104
 145        5PZ        -0.00001  -0.00013   0.00025  -0.00041  -0.00005
 146        6PX         0.00000   0.00000   0.00000   0.00000   0.00000
 147        6PY         0.00152   0.00249   0.00294   0.00354  -0.00293
 148        6PZ         0.00066  -0.00291   0.00078  -0.00174   0.00097
 149        7PX         0.00000   0.00000   0.00000   0.00000   0.00000
 150        7PY         0.00008  -0.00425   0.00175   0.00049  -0.00637
 151        7PZ         0.00087   0.00112  -0.00206   0.00093   0.00232
 152        8D 0       -0.00010   0.00027  -0.00022  -0.00004  -0.00006
 153        8D+1        0.00000   0.00000   0.00000   0.00000   0.00000
 154        8D-1        0.00002  -0.00047   0.00084  -0.00096   0.00004
 155        8D+2       -0.00016   0.00002   0.00030  -0.00067  -0.00017
 156        8D-2        0.00000   0.00000   0.00000   0.00000   0.00000
 157        9D 0       -0.00024  -0.00008   0.00040  -0.00012   0.00121
 158        9D+1        0.00000   0.00000   0.00000   0.00000   0.00000
 159        9D-1       -0.00015  -0.00202   0.00129  -0.00136   0.00034
 160        9D+2       -0.00031   0.00056   0.00053  -0.00107   0.00194
 161        9D-2        0.00000   0.00000   0.00000   0.00000   0.00000
 162 5   H  1S          0.00004  -0.00011  -0.00004  -0.00020   0.00300
 163        2S          0.00129  -0.00417   0.01197   0.00636   0.00307
 164        3S          0.00209   0.00488   0.00382   0.00449   0.00681
 165        4S          0.00016   0.00074   0.00001   0.00060   0.00199
 166        5PX         0.00003   0.00004  -0.00027   0.00061   0.00025
 167        5PY         0.00000   0.00013  -0.00007   0.00000   0.00021
 168        5PZ        -0.00001  -0.00004  -0.00031   0.00045   0.00015
 169        6PX         0.00042   0.00050  -0.00129   0.00391   0.00022
 170        6PY        -0.00020  -0.00339   0.00187   0.00071  -0.00284
 171        6PZ         0.00038  -0.00093   0.00014   0.00381   0.00034
 172        7PX         0.00034  -0.00021  -0.00019   0.00136  -0.00101
 173        7PY        -0.00016  -0.00118   0.00104   0.00034  -0.00168
 174        7PZ         0.00001   0.00022  -0.00026   0.00300   0.00032
 175        8D 0       -0.00002  -0.00016  -0.00013   0.00009   0.00001
 176        8D+1        0.00004   0.00007  -0.00070   0.00106   0.00013
 177        8D-1       -0.00004  -0.00035   0.00009   0.00007   0.00004
 178        8D+2        0.00003   0.00021  -0.00059   0.00059   0.00010
 179        8D-2        0.00000  -0.00024   0.00001   0.00010  -0.00008
 180        9D 0       -0.00019  -0.00025  -0.00049   0.00028   0.00015
 181        9D+1        0.00024   0.00031  -0.00106   0.00158  -0.00016
 182        9D-1       -0.00015  -0.00139   0.00025  -0.00025  -0.00186
 183        9D+2        0.00002   0.00047  -0.00129   0.00089  -0.00021
 184        9D-2        0.00006  -0.00023   0.00002   0.00035   0.00001
 185 6   H  1S          0.00004  -0.00011  -0.00004  -0.00020   0.00300
 186        2S          0.00129  -0.00417   0.01197   0.00636   0.00307
 187        3S          0.00209   0.00488   0.00382   0.00449   0.00681
 188        4S          0.00016   0.00074   0.00001   0.00060   0.00199
 189        5PX        -0.00003  -0.00004   0.00027  -0.00061  -0.00025
 190        5PY         0.00000   0.00013  -0.00007   0.00000   0.00021
 191        5PZ        -0.00001  -0.00004  -0.00031   0.00045   0.00015
 192        6PX        -0.00042  -0.00050   0.00129  -0.00391  -0.00022
 193        6PY        -0.00020  -0.00339   0.00187   0.00071  -0.00284
 194        6PZ         0.00038  -0.00093   0.00014   0.00381   0.00034
 195        7PX        -0.00034   0.00021   0.00019  -0.00136   0.00101
 196        7PY        -0.00016  -0.00118   0.00104   0.00034  -0.00168
 197        7PZ         0.00001   0.00022  -0.00026   0.00300   0.00032
 198        8D 0       -0.00002  -0.00016  -0.00013   0.00009   0.00001
 199        8D+1       -0.00004  -0.00007   0.00070  -0.00106  -0.00013
 200        8D-1       -0.00004  -0.00035   0.00009   0.00007   0.00004
 201        8D+2        0.00003   0.00021  -0.00059   0.00059   0.00010
 202        8D-2        0.00000   0.00024  -0.00001  -0.00010   0.00008
 203        9D 0       -0.00019  -0.00025  -0.00049   0.00028   0.00015
 204        9D+1       -0.00024  -0.00031   0.00106  -0.00158   0.00016
 205        9D-1       -0.00015  -0.00139   0.00025  -0.00025  -0.00186
 206        9D+2        0.00002   0.00047  -0.00129   0.00089  -0.00021
 207        9D-2       -0.00006   0.00023  -0.00002  -0.00035  -0.00001
 208 7   H  1S         -0.00012  -0.00016   0.00013   0.00007   0.00515
 209        2S          0.00004   0.00192   0.02043   0.00121  -0.00705
 210        3S         -0.00557  -0.02521   0.01466   0.00986  -0.03303
 211        4S         -0.00007  -0.00049   0.00043  -0.00025  -0.00050
 212        5PX         0.00000   0.00000   0.00000   0.00000   0.00000
 213        5PY         0.00002  -0.00003   0.00025   0.00053  -0.00104
 214        5PZ        -0.00001  -0.00013   0.00025   0.00041  -0.00005
 215        6PX         0.00000   0.00000   0.00000   0.00000   0.00000
 216        6PY        -0.00152  -0.00249  -0.00294   0.00354   0.00293
 217        6PZ         0.00066  -0.00291   0.00078   0.00174   0.00097
 218        7PX         0.00000   0.00000   0.00000   0.00000   0.00000
 219        7PY        -0.00008   0.00425  -0.00175   0.00049   0.00637
 220        7PZ         0.00087   0.00112  -0.00206  -0.00093   0.00232
 221        8D 0       -0.00010   0.00027  -0.00022   0.00004  -0.00006
 222        8D+1        0.00000   0.00000   0.00000   0.00000   0.00000
 223        8D-1       -0.00002   0.00047  -0.00084  -0.00096  -0.00004
 224        8D+2       -0.00016   0.00002   0.00030   0.00067  -0.00017
 225        8D-2        0.00000   0.00000   0.00000   0.00000   0.00000
 226        9D 0       -0.00024  -0.00008   0.00040   0.00012   0.00121
 227        9D+1        0.00000   0.00000   0.00000   0.00000   0.00000
 228        9D-1        0.00015   0.00202  -0.00129  -0.00136  -0.00034
 229        9D+2       -0.00031   0.00056   0.00053   0.00107   0.00194
 230        9D-2        0.00000   0.00000   0.00000   0.00000   0.00000
 231 8   H  1S          0.00004  -0.00011  -0.00004   0.00020   0.00300
 232        2S          0.00129  -0.00417   0.01197  -0.00636   0.00307
 233        3S          0.00209   0.00488   0.00382  -0.00449   0.00681
 234        4S          0.00016   0.00074   0.00001  -0.00060   0.00199
 235        5PX        -0.00003  -0.00004   0.00027   0.00061  -0.00025
 236        5PY         0.00000  -0.00013   0.00007   0.00000  -0.00021
 237        5PZ        -0.00001  -0.00004  -0.00031  -0.00045   0.00015
 238        6PX        -0.00042  -0.00050   0.00129   0.00391  -0.00022
 239        6PY         0.00020   0.00339  -0.00187   0.00071   0.00284
 240        6PZ         0.00038  -0.00093   0.00014  -0.00381   0.00034
 241        7PX        -0.00034   0.00021   0.00019   0.00136   0.00101
 242        7PY         0.00016   0.00118  -0.00104   0.00034   0.00168
 243        7PZ         0.00001   0.00022  -0.00026  -0.00300   0.00032
 244        8D 0       -0.00002  -0.00016  -0.00013  -0.00009   0.00001
 245        8D+1       -0.00004  -0.00007   0.00070   0.00106  -0.00013
 246        8D-1        0.00004   0.00035  -0.00009   0.00007  -0.00004
 247        8D+2        0.00003   0.00021  -0.00059  -0.00059   0.00010
 248        8D-2        0.00000  -0.00024   0.00001  -0.00010  -0.00008
 249        9D 0       -0.00019  -0.00025  -0.00049  -0.00028   0.00015
 250        9D+1       -0.00024  -0.00031   0.00106   0.00158   0.00016
 251        9D-1        0.00015   0.00139  -0.00025  -0.00025   0.00186
 252        9D+2        0.00002   0.00047  -0.00129  -0.00089  -0.00021
 253        9D-2        0.00006  -0.00023   0.00002  -0.00035   0.00001
 254 9   H  1S          0.00004  -0.00011  -0.00004   0.00020   0.00300
 255        2S          0.00129  -0.00417   0.01197  -0.00636   0.00307
 256        3S          0.00209   0.00488   0.00382  -0.00449   0.00681
 257        4S          0.00016   0.00074   0.00001  -0.00060   0.00199
 258        5PX         0.00003   0.00004  -0.00027  -0.00061   0.00025
 259        5PY         0.00000  -0.00013   0.00007   0.00000  -0.00021
 260        5PZ        -0.00001  -0.00004  -0.00031  -0.00045   0.00015
 261        6PX         0.00042   0.00050  -0.00129  -0.00391   0.00022
 262        6PY         0.00020   0.00339  -0.00187   0.00071   0.00284
 263        6PZ         0.00038  -0.00093   0.00014  -0.00381   0.00034
 264        7PX         0.00034  -0.00021  -0.00019  -0.00136  -0.00101
 265        7PY         0.00016   0.00118  -0.00104   0.00034   0.00168
 266        7PZ         0.00001   0.00022  -0.00026  -0.00300   0.00032
 267        8D 0       -0.00002  -0.00016  -0.00013  -0.00009   0.00001
 268        8D+1        0.00004   0.00007  -0.00070  -0.00106   0.00013
 269        8D-1        0.00004   0.00035  -0.00009   0.00007  -0.00004
 270        8D+2        0.00003   0.00021  -0.00059  -0.00059   0.00010
 271        8D-2        0.00000   0.00024  -0.00001   0.00010   0.00008
 272        9D 0       -0.00019  -0.00025  -0.00049  -0.00028   0.00015
 273        9D+1        0.00024   0.00031  -0.00106  -0.00158  -0.00016
 274        9D-1        0.00015   0.00139  -0.00025  -0.00025   0.00186
 275        9D+2        0.00002   0.00047  -0.00129  -0.00089  -0.00021
 276        9D-2       -0.00006   0.00023  -0.00002   0.00035  -0.00001
 277 10  O  1S          0.97320   0.00036   0.00022   0.00000  -0.18705
 278        2S         -0.00952   0.00389   0.00140   0.00000   0.42645
 279        3S          0.05159   0.00134   0.00023   0.00000   0.12614
 280        4S          0.01086   0.00774   0.00104   0.00000   0.28066
 281        5S          0.00809   0.02758   0.00616   0.00000   0.07675
 282        6PX         0.00000   0.00000   0.00000   0.00000   0.00000
 283        6PY         0.00000   0.00000   0.00000   0.00012   0.00000
 284        6PZ        -0.00147  -0.00077  -0.00009   0.00000  -0.09111
 285        7PX         0.00000   0.00000   0.00000   0.00000   0.00000
 286        7PY         0.00000   0.00000   0.00000  -0.00064   0.00000
 287        7PZ         0.00011   0.00251   0.00035   0.00000  -0.11057
 288        8PX         0.00000   0.00000   0.00000   0.00000   0.00000
 289        8PY         0.00000   0.00000   0.00000   0.00266   0.00000
 290        8PZ         0.00521   0.02276   0.00460   0.00000  -0.02449
 291        9PX         0.00000   0.00000   0.00000   0.00000   0.00000
 292        9PY         0.00000   0.00000   0.00000  -0.00181   0.00000
 293        9PZ        -0.00001  -0.00167  -0.00165   0.00000  -0.00514
 294       10D 0        0.00041   0.00034  -0.00001   0.00000   0.00720
 295       10D+1        0.00000   0.00000   0.00000   0.00000   0.00000
 296       10D-1        0.00000   0.00000   0.00000  -0.00004   0.00000
 297       10D+2       -0.00003  -0.00002  -0.00023   0.00000   0.00051
 298       10D-2        0.00000   0.00000   0.00000   0.00000   0.00000
 299       11D 0       -0.00127  -0.00492  -0.00002   0.00000   0.01844
 300       11D+1        0.00000   0.00000   0.00000   0.00000   0.00000
 301       11D-1        0.00000   0.00000   0.00000   0.00032   0.00000
 302       11D+2        0.00027   0.00016   0.00132   0.00000   0.00239
 303       11D-2        0.00000   0.00000   0.00000   0.00000   0.00000
 304       12D 0       -0.00310  -0.01066  -0.00134   0.00000  -0.00820
 305       12D+1        0.00000   0.00000   0.00000   0.00000   0.00000
 306       12D-1        0.00000   0.00000   0.00000  -0.00213   0.00000
 307       12D+2        0.00084   0.00151   0.00273   0.00000   0.00091
 308       12D-2        0.00000   0.00000   0.00000   0.00000   0.00000
 309       13F 0       -0.00001   0.00039   0.00000   0.00000  -0.00366
 310       13F+1        0.00000   0.00000   0.00000   0.00000   0.00000
 311       13F-1        0.00000   0.00000   0.00000  -0.00010   0.00000
 312       13F+2        0.00002   0.00004   0.00013   0.00000   0.00000
 313       13F-2        0.00000   0.00000   0.00000   0.00000   0.00000
 314       13F+3        0.00000   0.00000   0.00000   0.00000   0.00000
 315       13F-3        0.00000   0.00000   0.00000   0.00006   0.00000
 316       14F 0        0.00089   0.00278  -0.00032   0.00000  -0.00245
 317       14F+1        0.00000   0.00000   0.00000   0.00000   0.00000
 318       14F-1        0.00000   0.00000   0.00000   0.00033   0.00000
 319       14F+2       -0.00035  -0.00017  -0.00133   0.00000  -0.00112
 320       14F-2        0.00000   0.00000   0.00000   0.00000   0.00000
 321       14F+3        0.00000   0.00000   0.00000   0.00000   0.00000
 322       14F-3        0.00000   0.00000   0.00000  -0.00020   0.00000
                           6         7         8         9        10
                        (A1)--O   (B2)--O   (A1)--O   (B2)--O   (B1)--O
     Eigenvalues --    -0.77511  -0.71398  -0.53988  -0.46708  -0.46475
   1 1   C  1S         -0.08707   0.00000  -0.13106   0.00000   0.00000
   2        2S          0.19771   0.00000   0.30990   0.00000   0.00000
   3        3S          0.04927   0.00000   0.08152   0.00000   0.00000
   4        4S          0.10583   0.00000   0.23847   0.00000   0.00000
   5        5S          0.09041   0.00000   0.10078   0.00000   0.00000
   6        6PX         0.00000   0.00000   0.00000   0.00000   0.14785
   7        6PY         0.00000   0.10695   0.00000   0.18914   0.00000
   8        6PZ        -0.10269   0.00000  -0.02883   0.00000   0.00000
   9        7PX         0.00000   0.00000   0.00000   0.00000   0.17889
  10        7PY         0.00000   0.10723   0.00000   0.21041   0.00000
  11        7PZ        -0.10074   0.00000  -0.04116   0.00000   0.00000
  12        8PX         0.00000   0.00000   0.00000   0.00000   0.03728
  13        8PY         0.00000   0.01672   0.00000   0.02074   0.00000
  14        8PZ         0.02757   0.00000  -0.00128   0.00000   0.00000
  15        9PX         0.00000   0.00000   0.00000   0.00000  -0.00235
  16        9PY         0.00000   0.00190   0.00000  -0.04700   0.00000
  17        9PZ        -0.00260   0.00000  -0.00464   0.00000   0.00000
  18       10D 0       -0.00490   0.00000   0.00147   0.00000   0.00000
  19       10D+1        0.00000   0.00000   0.00000   0.00000   0.00281
  20       10D-1        0.00000  -0.00588   0.00000   0.00471   0.00000
  21       10D+2       -0.00700   0.00000  -0.00384   0.00000   0.00000
  22       10D-2        0.00000   0.00000   0.00000   0.00000   0.00000
  23       11D 0        0.00468   0.00000   0.00231   0.00000   0.00000
  24       11D+1        0.00000   0.00000   0.00000   0.00000  -0.00297
  25       11D-1        0.00000  -0.01387   0.00000  -0.01722   0.00000
  26       11D+2       -0.00624   0.00000  -0.00983   0.00000   0.00000
  27       11D-2        0.00000   0.00000   0.00000   0.00000   0.00000
  28       12D 0        0.01373   0.00000   0.03196   0.00000   0.00000
  29       12D+1        0.00000   0.00000   0.00000   0.00000  -0.00668
  30       12D-1        0.00000  -0.01421   0.00000  -0.03459   0.00000
  31       12D+2       -0.00389   0.00000   0.00183   0.00000   0.00000
  32       12D-2        0.00000   0.00000   0.00000   0.00000   0.00000
  33       13F 0        0.00209   0.00000   0.00563   0.00000   0.00000
  34       13F+1        0.00000   0.00000   0.00000   0.00000   0.00413
  35       13F-1        0.00000   0.00059   0.00000   0.00077   0.00000
  36       13F+2        0.00394   0.00000   0.00579   0.00000   0.00000
  37       13F-2        0.00000   0.00000   0.00000   0.00000   0.00000
  38       13F+3        0.00000   0.00000   0.00000   0.00000  -0.00349
  39       13F-3        0.00000  -0.00139   0.00000  -0.00365   0.00000
  40       14F 0        0.00711   0.00000   0.00631   0.00000   0.00000
  41       14F+1        0.00000   0.00000   0.00000   0.00000  -0.00113
  42       14F-1        0.00000   0.00440   0.00000   0.01188   0.00000
  43       14F+2        0.00353   0.00000   0.00255   0.00000   0.00000
  44       14F-2        0.00000   0.00000   0.00000   0.00000   0.00000
  45       14F+3        0.00000   0.00000   0.00000   0.00000   0.00440
  46       14F-3        0.00000   0.00307   0.00000   0.00732   0.00000
  47 2   C  1S         -0.11711  -0.13289   0.04925   0.01651   0.00000
  48        2S          0.26051   0.30115  -0.11483  -0.03595   0.00000
  49        3S          0.06454   0.07685  -0.02972  -0.00823   0.00000
  50        4S          0.11886   0.08627  -0.15574  -0.19729   0.00000
  51        5S         -0.02697  -0.01644  -0.03349   0.03755   0.00000
  52        6PX         0.00000   0.00000   0.00000   0.00000   0.14422
  53        6PY        -0.02959   0.00497  -0.10592  -0.05529   0.00000
  54        6PZ         0.00297   0.00537   0.05630   0.13574   0.00000
  55        7PX         0.00000   0.00000   0.00000   0.00000   0.15965
  56        7PY        -0.02950   0.00114  -0.10956  -0.06009   0.00000
  57        7PZ         0.00206   0.00642   0.05835   0.15227   0.00000
  58        8PX         0.00000   0.00000   0.00000   0.00000   0.10777
  59        8PY        -0.01275   0.00859  -0.03855  -0.04119   0.00000
  60        8PZ        -0.00221   0.00144   0.02420   0.08804   0.00000
  61        9PX         0.00000   0.00000   0.00000   0.00000   0.00662
  62        9PY         0.00558   0.00738   0.00326  -0.00594   0.00000
  63        9PZ        -0.00415   0.00137  -0.00346   0.01561   0.00000
  64       10D 0       -0.00132   0.00076  -0.00169   0.00088   0.00000
  65       10D+1        0.00000   0.00000   0.00000   0.00000  -0.00547
  66       10D-1       -0.00178  -0.00070  -0.00658  -0.00439   0.00000
  67       10D+2       -0.00232  -0.00006  -0.00533  -0.00731   0.00000
  68       10D-2        0.00000   0.00000   0.00000   0.00000  -0.00297
  69       11D 0       -0.00220   0.00444  -0.00265   0.01478   0.00000
  70       11D+1        0.00000   0.00000   0.00000   0.00000   0.00171
  71       11D-1       -0.00317  -0.01242  -0.00914  -0.02474   0.00000
  72       11D+2       -0.00829  -0.00187  -0.00976  -0.00508   0.00000
  73       11D-2        0.00000   0.00000   0.00000   0.00000  -0.01163
  74       12D 0       -0.00792   0.00216  -0.00884   0.00381   0.00000
  75       12D+1        0.00000   0.00000   0.00000   0.00000  -0.00024
  76       12D-1       -0.00347  -0.00868  -0.00670  -0.00997   0.00000
  77       12D+2        0.00239   0.00224   0.00804  -0.00411   0.00000
  78       12D-2        0.00000   0.00000   0.00000   0.00000  -0.00598
  79       13F 0       -0.00120  -0.00099  -0.00059  -0.00065   0.00000
  80       13F+1        0.00000   0.00000   0.00000   0.00000   0.00018
  81       13F-1        0.00104  -0.00141   0.00019  -0.00316   0.00000
  82       13F+2       -0.00413  -0.00466   0.00030  -0.00188   0.00000
  83       13F-2        0.00000   0.00000   0.00000   0.00000  -0.00202
  84       13F+3        0.00000   0.00000   0.00000   0.00000  -0.00237
  85       13F-3        0.00198   0.00094   0.00115   0.00092   0.00000
  86       14F 0        0.00025  -0.00332  -0.00119  -0.00190   0.00000
  87       14F+1        0.00000   0.00000   0.00000   0.00000   0.00004
  88       14F-1       -0.00184  -0.00306  -0.00054  -0.00763   0.00000
  89       14F+2        0.00058   0.00206   0.00362   0.01227   0.00000
  90       14F-2        0.00000   0.00000   0.00000   0.00000  -0.00027
  91       14F+3        0.00000   0.00000   0.00000   0.00000   0.00024
  92       14F-3        0.00060   0.00205   0.00288   0.00734   0.00000
  93 3   C  1S         -0.11711   0.13289   0.04925  -0.01651   0.00000
  94        2S          0.26051  -0.30115  -0.11483   0.03595   0.00000
  95        3S          0.06454  -0.07685  -0.02972   0.00823   0.00000
  96        4S          0.11886  -0.08627  -0.15574   0.19729   0.00000
  97        5S         -0.02697   0.01644  -0.03349  -0.03755   0.00000
  98        6PX         0.00000   0.00000   0.00000   0.00000   0.14422
  99        6PY         0.02959   0.00497   0.10592  -0.05529   0.00000
 100        6PZ         0.00297  -0.00537   0.05630  -0.13574   0.00000
 101        7PX         0.00000   0.00000   0.00000   0.00000   0.15965
 102        7PY         0.02950   0.00114   0.10956  -0.06009   0.00000
 103        7PZ         0.00206  -0.00642   0.05835  -0.15227   0.00000
 104        8PX         0.00000   0.00000   0.00000   0.00000   0.10777
 105        8PY         0.01275   0.00859   0.03855  -0.04119   0.00000
 106        8PZ        -0.00221  -0.00144   0.02420  -0.08804   0.00000
 107        9PX         0.00000   0.00000   0.00000   0.00000   0.00662
 108        9PY        -0.00558   0.00738  -0.00326  -0.00594   0.00000
 109        9PZ        -0.00415  -0.00137  -0.00346  -0.01561   0.00000
 110       10D 0       -0.00132  -0.00076  -0.00169  -0.00088   0.00000
 111       10D+1        0.00000   0.00000   0.00000   0.00000  -0.00547
 112       10D-1        0.00178  -0.00070   0.00658  -0.00439   0.00000
 113       10D+2       -0.00232   0.00006  -0.00533   0.00731   0.00000
 114       10D-2        0.00000   0.00000   0.00000   0.00000   0.00297
 115       11D 0       -0.00220  -0.00444  -0.00265  -0.01478   0.00000
 116       11D+1        0.00000   0.00000   0.00000   0.00000   0.00171
 117       11D-1        0.00317  -0.01242   0.00914  -0.02474   0.00000
 118       11D+2       -0.00829   0.00187  -0.00976   0.00508   0.00000
 119       11D-2        0.00000   0.00000   0.00000   0.00000   0.01163
 120       12D 0       -0.00792  -0.00216  -0.00884  -0.00381   0.00000
 121       12D+1        0.00000   0.00000   0.00000   0.00000  -0.00024
 122       12D-1        0.00347  -0.00868   0.00670  -0.00997   0.00000
 123       12D+2        0.00239  -0.00224   0.00804   0.00411   0.00000
 124       12D-2        0.00000   0.00000   0.00000   0.00000   0.00598
 125       13F 0       -0.00120   0.00099  -0.00059   0.00065   0.00000
 126       13F+1        0.00000   0.00000   0.00000   0.00000   0.00018
 127       13F-1       -0.00104  -0.00141  -0.00019  -0.00316   0.00000
 128       13F+2       -0.00413   0.00466   0.00030   0.00188   0.00000
 129       13F-2        0.00000   0.00000   0.00000   0.00000   0.00202
 130       13F+3        0.00000   0.00000   0.00000   0.00000  -0.00237
 131       13F-3       -0.00198   0.00094  -0.00115   0.00092   0.00000
 132       14F 0        0.00025   0.00332  -0.00119   0.00190   0.00000
 133       14F+1        0.00000   0.00000   0.00000   0.00000   0.00004
 134       14F-1        0.00184  -0.00306   0.00054  -0.00763   0.00000
 135       14F+2        0.00058  -0.00206   0.00362  -0.01227   0.00000
 136       14F-2        0.00000   0.00000   0.00000   0.00000   0.00027
 137       14F+3        0.00000   0.00000   0.00000   0.00000   0.00024
 138       14F-3       -0.00060   0.00205  -0.00288   0.00734   0.00000
 139 4   H  1S          0.03945  -0.06321  -0.05829  -0.01596   0.00000
 140        2S          0.03900  -0.08410  -0.06182  -0.06868   0.00000
 141        3S          0.00948  -0.03171   0.01775  -0.05230   0.00000
 142        4S         -0.00129   0.00487   0.00052   0.00030   0.00000
 143        5PX         0.00000   0.00000   0.00000   0.00000   0.00302
 144        5PY         0.00333  -0.00552  -0.00293  -0.00343   0.00000
 145        5PZ        -0.00241   0.00398   0.00489  -0.00186   0.00000
 146        6PX         0.00000   0.00000   0.00000   0.00000   0.00754
 147        6PY         0.00149  -0.00923   0.00132  -0.01456   0.00000
 148        6PZ         0.00195   0.00150   0.00544  -0.00250   0.00000
 149        7PX         0.00000   0.00000   0.00000   0.00000  -0.00076
 150        7PY        -0.00213  -0.00272   0.00735  -0.01204   0.00000
 151        7PZ         0.00456  -0.00078  -0.00164   0.00573   0.00000
 152        8D 0       -0.00012   0.00047  -0.00105   0.00176   0.00000
 153        8D+1        0.00000   0.00000   0.00000   0.00000  -0.00074
 154        8D-1       -0.00060   0.00116   0.00147  -0.00044   0.00000
 155        8D+2       -0.00077   0.00148   0.00000   0.00157   0.00000
 156        8D-2        0.00000   0.00000   0.00000   0.00000   0.00136
 157        9D 0       -0.00157   0.00090   0.00036  -0.00083   0.00000
 158        9D+1        0.00000   0.00000   0.00000   0.00000  -0.00100
 159        9D-1        0.00173  -0.00286  -0.00025  -0.00168   0.00000
 160        9D+2        0.00143  -0.00022  -0.00033   0.00100   0.00000
 161        9D-2        0.00000   0.00000   0.00000   0.00000  -0.00011
 162 5   H  1S          0.04831  -0.05828  -0.05117   0.06483  -0.07828
 163        2S          0.05185  -0.07088  -0.05229   0.06256  -0.10906
 164        3S         -0.00336  -0.00715  -0.01483  -0.00441  -0.00091
 165        4S         -0.00106  -0.00097  -0.00117  -0.00890   0.00337
 166        5PX         0.00408  -0.00490  -0.00438   0.00575  -0.00411
 167        5PY         0.00090  -0.00006   0.00193  -0.00084  -0.00081
 168        5PZ         0.00321  -0.00375  -0.00208   0.00160  -0.00571
 169        6PX         0.00093  -0.00181  -0.00260   0.00565  -0.00138
 170        6PY         0.00387  -0.00317   0.00702  -0.00856  -0.00229
 171        6PZ         0.00225  -0.00460   0.00209  -0.00730  -0.00667
 172        7PX        -0.00178   0.00408   0.00676  -0.00680   0.00711
 173        7PY         0.00009  -0.00482   0.00076  -0.00598   0.00305
 174        7PZ        -0.00612   0.00228  -0.00175  -0.00702   0.00757
 175        8D 0        0.00013  -0.00026   0.00041  -0.00112  -0.00089
 176        8D+1        0.00112  -0.00141  -0.00072   0.00058  -0.00164
 177        8D-1        0.00071  -0.00043   0.00107  -0.00100  -0.00043
 178        8D+2        0.00026  -0.00056  -0.00112   0.00167  -0.00024
 179        8D-2        0.00068  -0.00026   0.00109  -0.00061  -0.00037
 180        9D 0        0.00022  -0.00038   0.00075  -0.00127   0.00058
 181        9D+1       -0.00269   0.00199   0.00035  -0.00106   0.00013
 182        9D-1        0.00119  -0.00082   0.00154  -0.00301  -0.00041
 183        9D+2       -0.00206   0.00277   0.00024   0.00167   0.00152
 184        9D-2        0.00027  -0.00070   0.00055  -0.00081   0.00040
 185 6   H  1S          0.04831  -0.05828  -0.05117   0.06483   0.07828
 186        2S          0.05185  -0.07088  -0.05229   0.06256   0.10906
 187        3S         -0.00336  -0.00715  -0.01483  -0.00441   0.00091
 188        4S         -0.00106  -0.00097  -0.00117  -0.00890  -0.00337
 189        5PX        -0.00408   0.00490   0.00438  -0.00575  -0.00411
 190        5PY         0.00090  -0.00006   0.00193  -0.00084   0.00081
 191        5PZ         0.00321  -0.00375  -0.00208   0.00160   0.00571
 192        6PX        -0.00093   0.00181   0.00260  -0.00565  -0.00138
 193        6PY         0.00387  -0.00317   0.00702  -0.00856   0.00229
 194        6PZ         0.00225  -0.00460   0.00209  -0.00730   0.00667
 195        7PX         0.00178  -0.00408  -0.00676   0.00680   0.00711
 196        7PY         0.00009  -0.00482   0.00076  -0.00598  -0.00305
 197        7PZ        -0.00612   0.00228  -0.00175  -0.00702  -0.00757
 198        8D 0        0.00013  -0.00026   0.00041  -0.00112   0.00089
 199        8D+1       -0.00112   0.00141   0.00072  -0.00058  -0.00164
 200        8D-1        0.00071  -0.00043   0.00107  -0.00100   0.00043
 201        8D+2        0.00026  -0.00056  -0.00112   0.00167   0.00024
 202        8D-2       -0.00068   0.00026  -0.00109   0.00061  -0.00037
 203        9D 0        0.00022  -0.00038   0.00075  -0.00127  -0.00058
 204        9D+1        0.00269  -0.00199  -0.00035   0.00106   0.00013
 205        9D-1        0.00119  -0.00082   0.00154  -0.00301   0.00041
 206        9D+2       -0.00206   0.00277   0.00024   0.00167  -0.00152
 207        9D-2       -0.00027   0.00070  -0.00055   0.00081   0.00040
 208 7   H  1S          0.03945   0.06321  -0.05829   0.01596   0.00000
 209        2S          0.03900   0.08410  -0.06182   0.06868   0.00000
 210        3S          0.00948   0.03171   0.01775   0.05230   0.00000
 211        4S         -0.00129  -0.00487   0.00052  -0.00030   0.00000
 212        5PX         0.00000   0.00000   0.00000   0.00000   0.00302
 213        5PY        -0.00333  -0.00552   0.00293  -0.00343   0.00000
 214        5PZ        -0.00241  -0.00398   0.00489   0.00186   0.00000
 215        6PX         0.00000   0.00000   0.00000   0.00000   0.00754
 216        6PY        -0.00149  -0.00923  -0.00132  -0.01456   0.00000
 217        6PZ         0.00195  -0.00150   0.00544   0.00250   0.00000
 218        7PX         0.00000   0.00000   0.00000   0.00000  -0.00076
 219        7PY         0.00213  -0.00272  -0.00735  -0.01204   0.00000
 220        7PZ         0.00456   0.00078  -0.00164  -0.00573   0.00000
 221        8D 0       -0.00012  -0.00047  -0.00105  -0.00176   0.00000
 222        8D+1        0.00000   0.00000   0.00000   0.00000  -0.00074
 223        8D-1        0.00060   0.00116  -0.00147  -0.00044   0.00000
 224        8D+2       -0.00077  -0.00148   0.00000  -0.00157   0.00000
 225        8D-2        0.00000   0.00000   0.00000   0.00000  -0.00136
 226        9D 0       -0.00157  -0.00090   0.00036   0.00083   0.00000
 227        9D+1        0.00000   0.00000   0.00000   0.00000  -0.00100
 228        9D-1       -0.00173  -0.00286   0.00025  -0.00168   0.00000
 229        9D+2        0.00143   0.00022  -0.00033  -0.00100   0.00000
 230        9D-2        0.00000   0.00000   0.00000   0.00000   0.00011
 231 8   H  1S          0.04831   0.05828  -0.05117  -0.06483   0.07828
 232        2S          0.05185   0.07088  -0.05229  -0.06256   0.10906
 233        3S         -0.00336   0.00715  -0.01483   0.00441   0.00091
 234        4S         -0.00106   0.00097  -0.00117   0.00890  -0.00337
[...]
 Symmetry B2   KE= 4.418790922783D+01
 Orbital energies and kinetic energies (alpha):
                                 1                 2
   1         (A1)--O         -19.128866         29.021854
   2         (A1)--O         -10.274777         15.919668
   3         (A1)--O         -10.176008         15.918950
   4         (B2)--O         -10.175986         15.914256
   5         (A1)--O          -1.053086          2.693582
   6         (A1)--O          -0.775106          1.511538
   7         (B2)--O          -0.713979          1.370434
   8         (A1)--O          -0.539876          1.790714
   9         (B2)--O          -0.467083          1.343592
  10         (B1)--O          -0.464754          1.072148
  11         (A1)--O          -0.462348          1.673928
  12         (A1)--O          -0.403215          1.492521
  13         (A2)--O          -0.403138          1.034927
  14         (B2)--O          -0.384017          1.206571
  15         (B1)--O          -0.362119          1.773769
  16         (B2)--O          -0.264952          2.259102
  17         (B1)--V          -0.030431          1.702387
  18         (A1)--V          -0.010188          0.221995
  19         (B2)--V           0.011602          0.147948
  20         (A1)--V           0.020161          0.138871
  21         (B1)--V           0.022942          0.208068
  22         (B2)--V           0.038498          0.121711
  23         (A1)--V           0.038640          0.183287
  24         (A2)--V           0.045042          0.104846
  25         (A1)--V           0.063678          0.171094
  26         (B1)--V           0.070996          0.199001
  27         (A1)--V           0.081336          0.341891
  28         (B2)--V           0.084028          0.293013
  29         (A1)--V           0.089664          0.297657
  30         (B2)--V           0.091943          0.185329
  31         (A2)--V           0.104000          0.198114
  32         (B1)--V           0.104270          0.276594
  33         (A1)--V           0.107563          0.458024
  34         (B2)--V           0.112163          0.254504
  35         (B1)--V           0.120905          0.373614
  36         (B2)--V           0.133635          0.397138
  37         (A2)--V           0.145230          0.589455
  38         (A1)--V           0.148541          0.489311
  39         (A1)--V           0.163426          0.335055
  40         (B1)--V           0.175147          0.392270
  41         (B2)--V           0.183372          0.487585
  42         (A1)--V           0.202263          0.661599
  43         (B2)--V           0.205223          0.486995
  44         (A1)--V           0.206447          0.649006
  45         (A1)--V           0.235553          0.604939
  46         (B2)--V           0.249672          0.661912
  47         (B1)--V           0.253415          0.552352
  48         (A2)--V           0.262422          0.452994
  49         (A1)--V           0.275985          0.872206
  50         (B2)--V           0.278919          0.607619
  51         (B1)--V           0.280325          0.519060
  52         (A2)--V           0.282018          0.417187
  53         (A1)--V           0.291883          0.606979
  54         (B1)--V           0.292242          0.399004
  55         (B2)--V           0.300576          0.533458
  56         (A1)--V           0.313616          0.600729
  57         (B1)--V           0.319332          0.785415
  58         (A2)--V           0.326292          0.428429
  59         (A1)--V           0.332695          0.543242
  60         (A1)--V           0.334357          1.172172
  61         (B2)--V           0.334358          0.854775
  62         (A2)--V           0.341869          0.854725
  63         (B1)--V           0.348932          0.527113
  64         (B2)--V           0.353284          0.813346
  65         (A1)--V           0.362426          0.747510
  66         (B2)--V           0.367205          0.671221
  67         (A1)--V           0.400486          0.660373
  68         (B2)--V           0.406132          1.674586
  69         (A2)--V           0.407023          0.530972
  70         (A1)--V           0.415782          0.982463
  71         (B2)--V           0.429000          0.555558
  72         (A1)--V           0.439962          0.831218
  73         (B1)--V           0.449030          0.583592
  74         (B2)--V           0.462546          0.627540
  75         (B1)--V           0.467985          1.044917
  76         (A2)--V           0.495147          0.649173
  77         (A1)--V           0.500385          0.756315
  78         (B2)--V           0.516522          0.871152
  79         (B1)--V           0.526342          0.979849
  80         (B2)--V           0.535665          0.917096
  81         (A1)--V           0.536831          2.079085
  82         (A2)--V           0.537721          0.695367
  83         (A1)--V           0.611572          1.455252
  84         (B2)--V           0.619133          1.035525
  85         (A1)--V           0.630397          1.114176
  86         (A2)--V           0.640620          1.024273
  87         (A1)--V           0.643375          1.190450
  88         (B1)--V           0.666023          0.981007
  89         (B2)--V           0.672556          1.532127
  90         (A1)--V           0.672750          1.279437
  91         (B2)--V           0.695214          1.263911
  92         (B1)--V           0.697697          1.309574
  93         (A2)--V           0.713074          1.272338
  94         (B1)--V           0.726112          1.045753
  95         (A1)--V           0.741042          1.210198
  96         (B2)--V           0.745697          1.084178
  97         (A1)--V           0.754157          1.255817
  98         (B1)--V           0.762454          1.142978
  99         (A1)--V           0.766219          1.447950
 100         (A2)--V           0.769770          1.025430
 101         (B2)--V           0.776935          1.516295
 102         (A2)--V           0.796874          1.123316
 103         (B2)--V           0.801035          1.208436
 104         (B1)--V           0.813972          1.049074
 105         (A1)--V           0.821324          1.503731
 106         (A1)--V           0.857092          1.228699
 107         (A1)--V           0.865003          1.569310
 108         (A2)--V           0.865743          1.094935
 109         (B1)--V           0.874728          1.289276
 110         (A2)--V           0.890876          1.302113
 111         (B2)--V           0.894187          1.245501
 112         (A1)--V           0.926453          1.620305
 113         (B1)--V           0.926562          1.287100
 114         (B2)--V           0.929025          1.239883
 115         (B1)--V           0.952777          1.469053
 116         (B2)--V           0.957095          1.301322
 117         (A1)--V           0.974015          1.272279
 118         (B1)--V           0.981850          1.333723
 119         (A2)--V           0.988631          1.198138
 120         (B2)--V           1.006678          1.374354
 121         (A1)--V           1.019413          1.468866
 122         (B2)--V           1.035208          1.394492
 123         (A2)--V           1.042523          1.336640
 124         (A1)--V           1.075587          1.311740
 125         (B1)--V           1.092143          1.288550
 126         (B2)--V           1.101123          1.363870
 127         (A1)--V           1.104495          1.430188
 128         (B2)--V           1.118484          1.468741
 129         (B1)--V           1.120748          1.320824
 130         (A2)--V           1.133132          1.361663
 131         (A1)--V           1.138348          1.577177
 132         (B1)--V           1.161559          1.941956
 133         (A1)--V           1.162120          1.729521
 134         (A2)--V           1.188354          1.416177
 135         (B2)--V           1.204235          1.658790
 136         (A1)--V           1.240687          1.680906
 137         (B2)--V           1.254477          1.790409
 138         (A2)--V           1.271731          1.521814
 139         (B1)--V           1.306169          1.686102
 140         (B2)--V           1.311082          1.832187
 141         (A2)--V           1.313523          1.679629
 142         (A1)--V           1.328544          2.098654
 143         (A1)--V           1.349564          1.906786
 144         (B2)--V           1.356463          1.900311
 145         (B1)--V           1.361179          1.934178
 146         (A1)--V           1.389808          1.924843
 147         (A2)--V           1.402253          2.137513
 148         (B2)--V           1.413902          2.044789
 149         (A1)--V           1.415268          2.020136
 150         (B1)--V           1.444282          2.020643
 151         (B1)--V           1.468450          1.959713
 152         (B2)--V           1.474729          2.254910
 153         (A1)--V           1.485771          2.302675
 154         (A2)--V           1.490459          1.848673
 155         (A1)--V           1.514999          2.237656
 156         (B2)--V           1.522034          2.035057
 157         (A1)--V           1.556984          2.425980
 158         (B2)--V           1.577938          2.253418
 159         (A2)--V           1.580965          2.100718
 160         (B1)--V           1.581097          2.143235
 161         (B1)--V           1.591153          2.180650
 162         (B2)--V           1.627986          2.134079
 163         (A1)--V           1.637084          2.271572
 164         (B2)--V           1.658048          2.439242
 165         (A2)--V           1.670362          2.183611
 166         (A1)--V           1.676050          2.651161
 167         (B1)--V           1.728469          2.513361
 168         (A2)--V           1.731980          2.369169
 169         (B2)--V           1.749802          2.302929
 170         (A1)--V           1.769106          2.418781
 171         (B2)--V           1.772323          2.344345
 172         (A1)--V           1.802173          2.516490
 173         (B1)--V           1.827945          2.421068
 174         (B2)--V           1.873396          2.696048
 175         (A2)--V           1.873399          2.305208
 176         (B1)--V           1.944273          2.499790
 177         (A1)--V           1.970598          2.612587
 178         (B1)--V           1.987253          2.400266
 179         (B2)--V           1.989552          2.425313
 180         (A2)--V           1.990989          2.457376
 181         (B2)--V           2.009893          2.539454
 182         (A1)--V           2.015144          2.603696
 183         (A2)--V           2.039943          2.551552
 184         (B1)--V           2.078072          2.666755
 185         (A1)--V           2.098435          3.101798
 186         (B2)--V           2.118336          2.864589
 187         (A2)--V           2.152552          2.720821
 188         (A1)--V           2.176601          3.074660
 189         (B1)--V           2.234301          2.801055
 190         (A1)--V           2.242264          3.099191
 191         (B2)--V           2.274440          3.064495
 192         (B1)--V           2.350914          3.066340
 193         (A1)--V           2.383598          3.185806
 194         (A2)--V           2.385050          2.960642
 195         (B2)--V           2.395495          3.310252
 196         (B2)--V           2.417148          3.496618
 197         (A1)--V           2.502199          3.467194
 198         (B2)--V           2.518888          3.852700
 199         (A1)--V           2.564348          4.463716
 200         (B1)--V           2.654391          3.968099
 201         (A1)--V           2.673179          3.703403
 202         (A2)--V           2.726836          3.355109
 203         (B2)--V           2.814121          4.447401
 204         (B2)--V           2.827332          4.793378
 205         (A1)--V           2.830017          4.706325
 206         (B1)--V           2.861560          4.685129
 207         (A1)--V           2.988739          4.773266
 208         (B1)--V           3.038166          4.155155
 209         (A2)--V           3.073213          4.466830
 210         (B2)--V           3.081371          4.448874
 211         (A1)--V           3.101077          4.623902
 212         (B2)--V           3.123902          4.258474
 213         (A1)--V           3.139848          4.668838
 214         (A2)--V           3.155430          4.410427
 215         (B1)--V           3.190601          4.734840
 216         (B1)--V           3.228751          4.293685
 217         (B2)--V           3.273882          4.493968
 218         (A2)--V           3.282521          4.203419
 219         (B1)--V           3.288904          4.358615
 220         (A1)--V           3.298520          4.776978
 221         (B2)--V           3.347434          4.751749
 222         (A1)--V           3.357863          4.637990
 223         (A2)--V           3.377223          4.458445
 224         (B2)--V           3.379168          4.404924
 225         (B1)--V           3.388569          4.482715
 226         (A2)--V           3.459746          4.713322
 227         (A1)--V           3.467675          5.130173
 228         (A1)--V           3.527744          5.436970
 229         (B2)--V           3.549718          5.080820
 230         (A1)--V           3.574086          5.147669
 231         (B1)--V           3.582426          5.500229
 232         (A2)--V           3.613901          4.883247
 233         (A2)--V           3.633598          5.022000
 234         (B2)--V           3.635738          5.034065
 235         (B1)--V           3.638284          4.835786
 236         (A1)--V           3.661490          4.847288
 237         (B2)--V           3.716379          5.093994
 238         (B1)--V           3.722691          4.639553
 239         (A1)--V           3.746321          5.786719
 240         (B2)--V           3.756213          5.234199
 241         (A1)--V           3.809997          5.327571
 242         (A2)--V           3.811650          4.500739
 243         (B1)--V           3.824304          5.080892
 244         (A1)--V           3.847191          5.213632
 245         (B1)--V           3.852742          5.067935
 246         (B2)--V           3.857859          5.010337
 247         (A2)--V           3.900152          5.233128
 248         (A2)--V           3.940307          4.643873
 249         (A1)--V           3.970651          5.642794
 250         (B1)--V           4.028476          5.433077
 251         (B2)--V           4.057041          5.489948
 252         (A1)--V           4.100241          5.543060
 253         (B1)--V           4.126787          5.005991
 254         (B2)--V           4.136052          5.472659
 255         (A2)--V           4.145080          5.049286
 256         (A1)--V           4.197472          6.119490
 257         (B2)--V           4.207659          5.127107
 258         (B1)--V           4.300268          5.642137
 259         (A1)--V           4.301084          5.341085
 260         (A1)--V           4.319069          5.958901
 261         (B2)--V           4.351616          5.668002
 262         (B2)--V           4.403266          5.562951
 263         (A2)--V           4.428423          5.295240
 264         (A1)--V           4.448191          5.841975
 265         (A1)--V           4.478292          6.248602
 266         (A2)--V           4.494009          5.681883
 267         (B1)--V           4.497584          6.044694
 268         (B2)--V           4.507933          5.718502
 269         (B1)--V           4.542881          6.568889
 270         (B2)--V           4.596064          6.132561
 271         (A1)--V           4.620984          6.490979
 272         (B2)--V           4.644187          5.802175
 273         (A1)--V           4.721044          5.779104
 274         (B1)--V           4.815257          5.573711
 275         (A1)--V           4.832861          5.964084
 276         (A2)--V           4.861653          5.682279
 277         (B2)--V           4.867860          6.780216
 278         (B1)--V           4.894998          6.843709
 279         (A2)--V           4.910186          5.749422
 280         (A2)--V           4.978440          5.849671
 281         (B2)--V           5.012217          6.362721
 282         (A1)--V           5.018400          6.227287
 283         (B1)--V           5.054070          6.088375
 284         (B2)--V           5.058389          6.675291
 285         (A1)--V           5.118877          6.432908
 286         (B2)--V           5.174709          6.925841
 287         (A2)--V           5.258586          6.177224
 288         (B1)--V           5.268802          6.228761
 289         (A2)--V           5.337841          6.172815
 290         (A1)--V           5.361147          7.182740
 291         (B1)--V           5.367601          6.389729
 292         (B2)--V           5.383150          6.790100
 293         (A1)--V           5.479767          7.633559
 294         (B2)--V           5.551856          7.404237
 295         (B2)--V           5.616424          7.135711
 296         (A1)--V           5.629523          7.159353
 297         (B1)--V           5.755750          7.115333
 298         (B2)--V           5.761411          7.920796
 299         (A1)--V           5.771313          7.092941
 300         (A2)--V           5.773088          7.108436
 301         (B2)--V           5.887021          7.262945
 302         (A1)--V           5.981438          8.507159
 303         (B1)--V           6.195836          7.568133
 304         (B2)--V           6.279342          7.659518
 305         (A2)--V           6.304959          7.649373
 306         (A1)--V           6.338316          7.718897
 307         (B1)--V           6.359591          7.697287
 308         (B2)--V           6.375511          7.687889
 309         (A2)--V           6.559396          8.043695
 310         (A1)--V           6.587784          8.148008
 311         (B1)--V           6.769949          8.348987
 312         (A1)--V           6.824513          9.913076
 313         (A2)--V           6.918393          9.816200
 314         (B2)--V           7.012766          8.725547
 315         (A1)--V           7.068395          9.853132
 316         (B1)--V           7.140503         10.219387
 317         (A1)--V           7.278752         10.837261
 318         (B2)--V           7.398439         10.465604
 319         (A1)--V          14.427920         38.518183
 320         (A1)--V          16.145608         40.627035
 321         (B2)--V          16.451719         40.417557
 322         (A1)--V          18.552729         45.048416
 Total kinetic energy from orbitals= 1.919951112147D+02
 1\1\GINC-CND26\SP\RB3LYP TD-FC\Aug-CC-pVTZ\C3H6O1\POBMABEJ\18-Jan-2012
 \0\\#b3lyp TD=(singlets,nstates=3)/aug-cc-pVTZ SCRF=(IEFPCM,solvent=et
 hanol) SCF(maxCyc=200,conver=8) 5D 7F gfinput pop=full guess=read geom
 =checkpoint\\Zn12S12 K testing with B3LYP/SBKJ(d) and 6-311+G*\\0,1\C,
 0,0.,0.,0.1773939735\C,0,0.,1.2840467658,-0.6134189952\C,0,0.,-1.28404
 67658,-0.6134189952\H,0,0.,-2.143518236,0.0514859408\H,0,-0.8759635461
 ,-1.3203353862,-1.2640678879\H,0,0.8759635461,-1.3203353862,-1.2640678
 879\H,0,0.,2.143518236,0.0514859408\H,0,0.8759635461,1.3203353862,-1.2
 640678879\H,0,-0.8759635461,1.3203353862,-1.2640678879\O,0,0.,0.,1.395
 0116869\\Version=IA64L-G09RevB.01\State=1-A1\HF=-193.2429558\RMSD=2.58
 8e-09\PG=C02V [C2(C1O1),SGV(C2H2),X(H4)]\\@


     "IF I COULD JUST GET IT ON PAPER"
 LIFE AND INK, THEY RUN OUT AT THE SAME TIME,
 OR SO SAID MY OLD FRIEND THE SQUID.
     -- JIMMY BUFFETT, 1981
 Job cpu time:  0 days  1 hours 34 minutes 58.0 seconds.
 File lengths (MBytes):  RWF=    107 Int=      0 D2E=      0 Chk=     14 Scr=      1
 Normal termination of Gaussian 09 at Wed Jan 18 15:49:57 2012.
